      -----------------------------------------------------------      
     |                   =====================                   |     
     |                           x T B                           |     
     |                   =====================                   |     
     |                         S. Grimme                         |     
     |          Mulliken Center for Theoretical Chemistry        |     
     |                    University of Bonn                     |     
      -----------------------------------------------------------      

   * xtb version 6.2.2 (9d81278992624c895f80dd42a50cac0aa55982e2) compiled by '@Darwin' on 04/03/2020

   xtb is free software: you can redistribute it and/or modify it under
   the terms of the GNU Lesser General Public License as published by
   the Free Software Foundation, either version 3 of the License, or
   (at your option) any later version.
   
   xtb is distributed in the hope that it will be useful,
   but WITHOUT ANY WARRANTY; without even the implied warranty of
   MERCHANTABILITY or FITNESS FOR A PARTICULAR PURPOSE.  See the
   GNU Lesser General Public License for more details.
   
   Cite this work as:
   * S. Grimme, C. Bannwarth, P. Shushkov, J. Chem. Theory Comput., 2017,
     13, 1989-2009. DOI: 10.1021/acs.jctc.7b00118
   * C. Bannwarth, S. Ehlert and S. Grimme., J. Chem. Theory Comput., 2019,
     15, 1652-1671. DOI: 10.1021/acs.jctc.8b01176
   * P. Pracht, E. Caldeweyher, S. Ehlert, S. Grimme, ChemRxiv, 2019, preprint.
     DOI: 10.26434/chemrxiv.8326202.v1
   
   for DFT-D4:
   * E. Caldeweyher, C. Bannwarth and S. Grimme, J. Chem. Phys., 2017,
     147, 034112. DOI: 10.1063/1.4993215
   * E. Caldeweyher, S. Ehlert, A. Hansen, H. Neugebauer, S. Spicher,
     C. Bannwarth and S. Grimme, J. Chem. Phys., 2019, 150, 154122.
     DOI: 10.1063/1.5090222
   
   for sTDA-xTB:
   * S. Grimme and C. Bannwarth, J. Chem. Phys., 2016, 145, 054103.
     DOI: 10.1063/1.4959605
   
   in the mass-spec context:
   * V. Asgeirsson, C. Bauer and S. Grimme, Chem. Sci., 2017, 8, 4879.
     DOI: 10.1039/c7sc00601b
   
   for metadynamics refer to:
   * S. Grimme, J. Chem. Theory Comput., 2019, 155, 2847-2862
     DOI: 10.1021/acs.jctc.9b00143
   
   with help from (in alphabetical order)
   C. Bannwarth, F. Bohle, G. Brandenburg, E. Caldeweyher, M. Checinski,
   S. Dohm, S. Ehlert, S. Ehrlich, F. März, H. Neugebauer, J. Pisarek,
   P. Pracht, P. Shushkov, and S. Spicher.
   
 * started run on 2020/05/12 at 11:45:13.590     

           -------------------------------------------------
          |                Calculation Setup                |
           -------------------------------------------------

          program call               : xtb --input H2C2O1_2_S_0.input H2C2O1_2_S_0.xyz --ohess --molden --namespace H2C2O1_2_S_0 output.out
          calculation namespace      : H2C2O1_2_S_0
          coordinate file            : H2C2O1_2_S_0.xyz
          number of atoms            :                     5
          number of electrons        :                    16
          charge                     :                     0
          spin                       :                   0.0
          first test random number   :      0.51298963401004

   ID    Z sym.   atoms
    1    6 C      1, 2
    2    8 O      3
    3    1 H      4, 5

           -------------------------------------------------
          |                 G F N 2 - x T B                 |
           -------------------------------------------------

        Reference                      10.1021/acs.jctc.8b01176
      * Hamiltonian:
        H0-scaling (s, p, d)           1.850000    2.230000    2.230000
        zeta-weighting                 0.500000
      * Dispersion:
        s8                             2.700000
        a1                             0.520000
        a2                             5.000000
        s9                             5.000000
      * Repulsion:
        kExp                           1.500000    1.000000
        rExp                           1.000000
      * Coulomb:
        alpha                          2.000000
        third order                    shell-resolved
        anisotropic                    true
        a3                             3.000000
        a5                             4.000000
        cn-shift                       1.200000
        cn-exp                         4.000000
        max-rad                        5.000000


          ...................................................
          :                      SETUP                      :
          :.................................................:
          :  # basis functions                  14          :
          :  # atomic orbitals                  14          :
          :  # shells                            8          :
          :  # electrons                        16          :
          :  max. iterations                   250          :
          :  Hamiltonian                  GFN2-xTB          :
          :  restarted?                      false          :
          :  GBSA solvation                  false          :
          :  PC potential                    false          :
          :  electronic temp.          300.0000000     K    :
          :  accuracy                    1.0000000          :
          :  -> integral cutoff          0.2500000E+02      :
          :  -> integral neglect         0.1000000E-07      :
          :  -> SCF convergence          0.1000000E-05 Eh   :
          :  -> wf. convergence          0.1000000E-03 e    :
          :  Broyden damping             0.4000000          :
          ...................................................

 iter      E             dE          RMSdq      gap      omega  full diag
   1     -9.1371377 -0.913714E+01  0.893E+00    1.49       0.0  T
   2     -9.1070817  0.300560E-01  0.565E+00    0.94       1.0  T
   3     -8.8846068  0.222475E+00  0.741E+00    2.10       1.0  T
   4     -9.1574228 -0.272816E+00  0.804E-01    1.04       1.0  T
   5     -9.1602245 -0.280176E-02  0.384E-01    1.13       1.0  T
   6     -9.1594345  0.790008E-03  0.399E-01    1.06       1.0  T
   7     -9.1601140 -0.679438E-03  0.231E-01    1.13       1.0  T
   8     -9.1604273 -0.313381E-03  0.260E-02    1.11       1.7  T
   9     -9.1604254  0.191608E-05  0.299E-02    1.11       1.5  T
  10     -9.1604308 -0.534569E-05  0.449E-03    1.11      10.0  T
  11     -9.1604309 -0.912646E-07  0.222E-03    1.11      20.2  T
  12     -9.1604309 -0.291481E-07  0.491E-04    1.11      91.1  T
  13     -9.1604309 -0.130907E-08  0.120E-04    1.11     371.4  T

   *** convergence criteria satisfied after 13 iterations ***

         #    Occupation            Energy/Eh            Energy/eV
      -------------------------------------------------------------
         1        2.0000           -0.7243564             -19.7107
         2        2.0000           -0.6562018             -17.8562
         3        2.0000           -0.5982180             -16.2783
         4        2.0000           -0.5839907             -15.8912
         5        2.0000           -0.5518354             -15.0162
         6        2.0000           -0.4955190             -13.4838
         7        2.0000           -0.4326776             -11.7738
         8        2.0000           -0.4089277             -11.1275 (HOMO)
         9                         -0.3681702             -10.0184 (LUMO)
        10                         -0.3048111              -8.2943
        11                          0.0473396               1.2882
        12                          0.1079620               2.9378
        13                          0.1347875               3.6678
        14                          0.1556789               4.2362
      -------------------------------------------------------------
                  HL-Gap            0.0407575 Eh            1.1091 eV
             Fermi-level           -0.3885489 Eh          -10.5730 eV

 SCC (total)                   0 d,  0 h,  0 min,  0.003 sec
 SCC setup                      ...        0 min,  0.000 sec (  3.069%)
 Dispersion                     ...        0 min,  0.000 sec (  0.506%)
 integral evaluation            ...        0 min,  0.001 sec ( 27.119%)
 zeroth order Hamiltonian       ...        0 min,  0.000 sec (  0.843%)
 iterations                     ...        0 min,  0.001 sec ( 39.658%)
 molecular gradient             ...        0 min,  0.001 sec ( 26.050%)
 printout                       ...        0 min,  0.000 sec (  2.362%)

         :::::::::::::::::::::::::::::::::::::::::::::::::::::
         ::                     SUMMARY                     ::
         :::::::::::::::::::::::::::::::::::::::::::::::::::::
         :: total energy              -9.110499596582 Eh    ::
         :: gradient norm              0.195705796686 Eh/a0 ::
         :: HOMO-LUMO gap              1.109068630893 eV    ::
         ::.................................................::
         :: SCC energy                -9.160430900543 Eh    ::
         :: -> isotropic ES            0.003044846620 Eh    ::
         :: -> anisotropic ES          0.000871355496 Eh    ::
         :: -> anisotropic XC          0.007505418430 Eh    ::
         :: -> dispersion             -0.001379315990 Eh    ::
         :: repulsion energy           0.049931270780 Eh    ::
         :: add. restraining           0.000000000000 Eh    ::
         :::::::::::::::::::::::::::::::::::::::::::::::::::::

      ----------------------------------------------------------- 
     |                   =====================                   |
     |                        A N C O P T                        |
     |                   =====================                   |
     |               Approximate Normal Coordinate               |
     |                Rational Function Optimizer                |
      ----------------------------------------------------------- 

          ...................................................
          :                      SETUP                      :
          :.................................................:
          :   optimization level            normal          :
          :   max. optcycles                   200          :
          :   ANC micro-cycles                  20          :
          :   degrees of freedom                 9          :
          :.................................................:
          :   RF solver                   davidson          :
          :   write xtbopt.log                true          :
          :   linear?                        false          :
          :   energy convergence         0.5000000E-05 Eh   :
          :   grad. convergence          0.1000000E-02 Eh/α :
          :   maximium RF displ.         1.0000000          :
          :   Hlow (freq-cutoff)         0.1000000E-01      :
          :   Hmax (freq-cutoff)         5.0000000          :
          :   S6 in model hess.         20.0000000          :
          ...................................................

generating ANC from model Hessian ...
Using Lindh-Hessian (1995)
 Shifting diagonal of input Hessian by    0.0000000000000000     
 Lowest  eigenvalues of input Hessian
   -0.000000   -0.000000    0.000000    0.000000    0.000000    0.000000
    0.023842    0.072228    0.087425    0.117053    0.192556    0.668925
    1.002483    1.146507    1.376890
 Highest eigenvalues
    0.117053    0.192556    0.668925    1.002483    1.146507    1.376890


........................................................................
.............................. CYCLE    1 ..............................
........................................................................
   1     -9.1604309 -0.916043E+01  0.233E-05    1.11       0.0  T
   2     -9.1604309  0.188951E-10  0.609E-05    1.11     734.0  T
   3     -9.1604309 -0.221956E-10  0.305E-06    1.11   14645.3  T
     SCC iter.                  ...        0 min,  0.000 sec
     gradient                   ...        0 min,  0.001 sec
 * total energy  :    -9.1104996 Eh     change        0.1412737E-09 Eh
   gradient norm :     0.1957064 Eh/α   predicted     0.0000000E+00 (-100.00%)
   displ. norm   :     0.4098056 α      lambda       -0.5882758E-01
   maximum displ.:     0.2120658 α      in ANC's #4, #2, #6, ...

........................................................................
.............................. CYCLE    2 ..............................
........................................................................
   1     -9.2182151 -0.921822E+01  0.205E+00    1.53       0.0  T
   2     -9.2057455  0.124696E-01  0.224E+00    1.94       1.0  T
   3     -9.2243689 -0.186234E-01  0.963E-01    1.62       1.0  T
   4     -9.2251084 -0.739485E-03  0.196E-01    1.64       1.0  T
   5     -9.2252261 -0.117756E-03  0.474E-02    1.66       1.0  T
   6     -9.2252267 -0.602807E-06  0.195E-02    1.66       2.3  T
   7     -9.2252274 -0.677365E-06  0.334E-03    1.66      13.4  T
   8     -9.2252275 -0.412089E-07  0.768E-04    1.66      58.2  T
   9     -9.2252275 -0.124883E-09  0.109E-04    1.66     410.0  T
     SCC iter.                  ...        0 min,  0.001 sec
     gradient                   ...        0 min,  0.001 sec
 * total energy  :    -9.1549468 Eh     change       -0.4444717E-01 Eh
   gradient norm :     0.1118949 Eh/α   predicted    -0.3435356E-01 ( -22.71%)
   displ. norm   :     0.3775588 α      lambda       -0.3609421E-01
   maximum displ.:     0.2451260 α      in ANC's #6, #7, #1, ...

........................................................................
.............................. CYCLE    3 ..............................
........................................................................
   1     -9.2923240 -0.929232E+01  0.249E+00    2.11       0.0  T
   2     -9.2917452  0.578781E-03  0.202E+00    2.21       1.0  T
   3     -9.3013953 -0.965009E-02  0.102E+00    2.10       1.0  T
   4     -9.3022355 -0.840191E-03  0.214E-01    2.08       1.0  T
   5     -9.3023381 -0.102632E-03  0.505E-02    2.09       1.0  T
   6     -9.3023377  0.394022E-06  0.274E-02    2.09       1.6  T
   7     -9.3023385 -0.785244E-06  0.397E-03    2.09      11.3  T
   8     -9.3023386 -0.705332E-07  0.847E-04    2.09      52.8  T
   9     -9.3023386 -0.578572E-09  0.129E-04    2.09     345.8  T
     SCC iter.                  ...        0 min,  0.001 sec
     gradient                   ...        0 min,  0.001 sec
 * total energy  :    -9.1594539 Eh     change       -0.4507159E-02 Eh
   gradient norm :     0.2049939 Eh/α   predicted    -0.2061971E-01 ( 357.49%)
   displ. norm   :     0.2895962 α      lambda       -0.3298265E-01
   maximum displ.:     0.2500470 α      in ANC's #3, #2, #1, ...

........................................................................
.............................. CYCLE    4 ..............................
........................................................................
   1     -9.2632071 -0.926321E+01  0.135E+00    2.12       0.0  T
   2     -9.2628533  0.353759E-03  0.857E-01    2.05       1.0  T
   3     -9.2605134  0.233989E-02  0.889E-01    2.22       1.0  T
   4     -9.2638262 -0.331280E-02  0.854E-02    2.13       1.0  T
   5     -9.2638361 -0.985557E-05  0.398E-02    2.12       1.1  T
   6     -9.2638378 -0.176516E-05  0.713E-03    2.12       6.3  T
   7     -9.2638379 -0.357435E-07  0.199E-03    2.12      22.5  T
   8     -9.2638379 -0.135215E-08  0.816E-04    2.12      54.8  T
   9     -9.2638379 -0.599277E-09  0.123E-04    2.12     363.7  T
     SCC iter.                  ...        0 min,  0.001 sec
     gradient                   ...        0 min,  0.001 sec
 * total energy  :    -9.1732691 Eh     change       -0.1381521E-01 Eh
   gradient norm :     0.0383737 Eh/α   predicted    -0.1787438E-01 (  29.38%)
   displ. norm   :     0.1703537 α      lambda       -0.3652846E-02
   maximum displ.:     0.0928738 α      in ANC's #2, #1, #3, ...

........................................................................
.............................. CYCLE    5 ..............................
........................................................................
   1     -9.2715803 -0.927158E+01  0.818E-01    2.30       0.0  T
   2     -9.2706686  0.911699E-03  0.797E-01    2.45       1.0  T
   3     -9.2725972 -0.192863E-02  0.366E-01    2.35       1.0  T
   4     -9.2727106 -0.113392E-03  0.333E-02    2.36       1.3  T
   5     -9.2727115 -0.933578E-06  0.136E-02    2.37       3.3  T
   6     -9.2727117 -0.173588E-06  0.398E-03    2.37      11.2  T
   7     -9.2727117 -0.111102E-07  0.623E-04    2.37      71.7  T
   8     -9.2727117 -0.140354E-09  0.173E-04    2.37     258.7  T
     SCC iter.                  ...        0 min,  0.001 sec
     gradient                   ...        0 min,  0.001 sec
 * total energy  :    -9.1760261 Eh     change       -0.2756924E-02 Eh
   gradient norm :     0.0322545 Eh/α   predicted    -0.1879426E-02 ( -31.83%)
   displ. norm   :     0.2694494 α      lambda       -0.3968483E-02
   maximum displ.:     0.1582341 α      in ANC's #3, #5, #1, ...

........................................................................
.............................. CYCLE    6 ..............................
........................................................................
   1     -9.2769705 -0.927697E+01  0.127E+00    2.78       0.0  T
   2     -9.2736962  0.327430E-02  0.138E+00    3.04       1.0  T
   3     -9.2807289 -0.703267E-02  0.536E-01    2.88       1.0  T
   4     -9.2807899 -0.610545E-04  0.610E-02    2.89       1.0  T
   5     -9.2807934 -0.349811E-05  0.210E-02    2.89       2.1  T
   6     -9.2807938 -0.360852E-06  0.625E-03    2.89       7.2  T
   7     -9.2807938 -0.306704E-07  0.878E-04    2.89      50.9  T
   8     -9.2807938 -0.939586E-10  0.374E-04    2.89     119.5  T
     SCC iter.                  ...        0 min,  0.001 sec
     gradient                   ...        0 min,  0.001 sec
 * total energy  :    -9.1786654 Eh     change       -0.2639357E-02 Eh
   gradient norm :     0.0314733 Eh/α   predicted    -0.2128302E-02 ( -19.36%)
   displ. norm   :     0.1645418 α      lambda       -0.1950098E-02
   maximum displ.:     0.1009737 α      in ANC's #2, #5, #3, ...

........................................................................
.............................. CYCLE    7 ..............................
........................................................................
   1     -9.2903184 -0.929032E+01  0.851E-01    3.40       0.0  T
   2     -9.2885356  0.178282E-02  0.972E-01    3.57       1.0  T
   3     -9.2928476 -0.431204E-02  0.272E-01    3.46       1.0  T
   4     -9.2928573 -0.968132E-05  0.487E-02    3.46       1.0  T
   5     -9.2928585 -0.118112E-05  0.151E-02    3.46       3.0  T
   6     -9.2928587 -0.175004E-06  0.653E-03    3.47       6.9  T
   7     -9.2928587 -0.630697E-07  0.463E-04    3.47      96.5  T
   8     -9.2928587 -0.687184E-10  0.139E-04    3.47     321.9  T
     SCC iter.                  ...        0 min,  0.001 sec
     gradient                   ...        0 min,  0.001 sec
 * total energy  :    -9.1797763 Eh     change       -0.1110859E-02 Eh
   gradient norm :     0.0173294 Eh/α   predicted    -0.1001447E-02 (  -9.85%)
   displ. norm   :     0.2894094 α      lambda       -0.1719194E-02
   maximum displ.:     0.1571676 α      in ANC's #1, #3, #2, ...

........................................................................
.............................. CYCLE    8 ..............................
........................................................................
   1     -9.2819666 -0.928197E+01  0.135E+00    4.22       0.0  T
   2     -9.2792337  0.273286E-02  0.127E+00    4.44       1.0  T
   3     -9.2851639 -0.593016E-02  0.558E-01    4.29       1.0  T
   4     -9.2855472 -0.383337E-03  0.688E-02    4.31       1.0  T
   5     -9.2855475 -0.310355E-06  0.236E-02    4.31       1.9  T
   6     -9.2855479 -0.384042E-06  0.535E-03    4.32       8.4  T
   7     -9.2855479 -0.168880E-07  0.915E-04    4.31      48.9  T
   8     -9.2855479 -0.247926E-09  0.411E-04    4.31     108.8  T
     SCC iter.                  ...        0 min,  0.001 sec
     gradient                   ...        0 min,  0.001 sec
 * total energy  :    -9.1803029 Eh     change       -0.5266172E-03 Eh
   gradient norm :     0.0320889 Eh/α   predicted    -0.9315933E-03 (  76.90%)
   displ. norm   :     0.0952731 α      lambda       -0.1098136E-02
   maximum displ.:     0.0828219 α      in ANC's #1, #2, #3, ...

........................................................................
.............................. CYCLE    9 ..............................
........................................................................
   1     -9.2918120 -0.929181E+01  0.361E-01    4.58       0.0  T
   2     -9.2917424  0.696101E-04  0.269E-01    4.61       1.0  T
   3     -9.2918458 -0.103400E-03  0.195E-01    4.57       1.0  T
   4     -9.2919468 -0.101060E-03  0.262E-02    4.58       1.7  T
   5     -9.2919472 -0.406408E-06  0.882E-03    4.58       5.1  T
   6     -9.2919473 -0.345016E-07  0.372E-03    4.58      12.0  T
   7     -9.2919473 -0.103041E-07  0.551E-04    4.58      81.1  T
   8     -9.2919473 -0.172777E-09  0.113E-04    4.58     395.4  T
     SCC iter.                  ...        0 min,  0.001 sec
     gradient                   ...        0 min,  0.001 sec
 * total energy  :    -9.1810272 Eh     change       -0.7243003E-03 Eh
   gradient norm :     0.0170528 Eh/α   predicted    -0.5540539E-03 ( -23.50%)
   displ. norm   :     0.2093062 α      lambda       -0.1219921E-02
   maximum displ.:     0.1475452 α      in ANC's #2, #5, #3, ...

........................................................................
.............................. CYCLE   10 ..............................
........................................................................
   1     -9.2965290 -0.929653E+01  0.125E+00    5.50       0.0  T
   2     -9.2941476  0.238141E-02  0.115E+00    5.62       1.0  T
   3     -9.2999278 -0.578022E-02  0.464E-01    5.55       1.0  T
   4     -9.3002140 -0.286212E-03  0.631E-02    5.56       1.0  T
   5     -9.3002168 -0.281410E-05  0.290E-02    5.56       1.5  T
   6     -9.3002177 -0.885061E-06  0.102E-02    5.56       4.4  T
   7     -9.3002179 -0.132385E-06  0.932E-04    5.56      48.0  T
   8     -9.3002179 -0.580664E-09  0.391E-04    5.56     114.3  T
     SCC iter.                  ...        0 min,  0.001 sec
     gradient                   ...        0 min,  0.001 sec
 * total energy  :    -9.1824032 Eh     change       -0.1375963E-02 Eh
   gradient norm :     0.0264889 Eh/α   predicted    -0.6366841E-03 ( -53.73%)
   displ. norm   :     0.3863951 α      lambda       -0.2964330E-02
   maximum displ.:     0.2427293 α      in ANC's #2, #3, #5, ...

........................................................................
.............................. CYCLE   11 ..............................
........................................................................
   1     -9.2970839 -0.929708E+01  0.231E+00    5.59       0.0  T
   2     -9.2888176  0.826631E-02  0.200E+00    5.40       1.0  T
   3     -9.3046096 -0.157920E-01  0.104E+00    5.62       1.0  T
   4     -9.3067201 -0.211042E-02  0.118E-01    5.62       1.0  T
   5     -9.3067287 -0.862064E-05  0.646E-02    5.62       1.0  T
   6     -9.3067344 -0.574808E-05  0.156E-02    5.62       2.9  T
   7     -9.3067348 -0.338132E-06  0.152E-03    5.62      29.5  T
   8     -9.3067348 -0.110776E-08  0.785E-04    5.62      57.0  T
   9     -9.3067348 -0.307843E-09  0.908E-05    5.62     492.8  T
     SCC iter.                  ...        0 min,  0.001 sec
     gradient                   ...        0 min,  0.001 sec
 * total energy  :    -9.1842005 Eh     change       -0.1797372E-02 Eh
   gradient norm :     0.0744859 Eh/α   predicted    -0.1703467E-02 (  -5.22%)
   displ. norm   :     0.3495664 α      lambda       -0.7572128E-02
   maximum displ.:     0.2422522 α      in ANC's #1, #2, #5, ...

........................................................................
.............................. CYCLE   12 ..............................
........................................................................
   1     -9.3301365 -0.933014E+01  0.171E+00    5.36       0.0  T
   2     -9.3274636  0.267298E-02  0.126E+00    5.00       1.0  T
   3     -9.3318144 -0.435083E-02  0.921E-01    5.30       1.0  T
   4     -9.3338022 -0.198782E-02  0.109E-01    5.17       1.0  T
   5     -9.3338140 -0.117708E-04  0.526E-02    5.16       1.0  T
   6     -9.3338175 -0.355746E-05  0.623E-03    5.16       7.2  T
   7     -9.3338176 -0.425141E-07  0.105E-03    5.15      42.5  T
   8     -9.3338176 -0.499579E-09  0.495E-04    5.15      90.3  T
   9     -9.3338176 -0.780442E-10  0.551E-05    5.15     811.3  T
     SCC iter.                  ...        0 min,  0.001 sec
     gradient                   ...        0 min,  0.001 sec
 * total energy  :    -9.1921038 Eh     change       -0.7903306E-02 Eh
   gradient norm :     0.0926799 Eh/α   predicted    -0.4248709E-02 ( -46.24%)
   displ. norm   :     0.2605655 α      lambda       -0.1632565E-01
   maximum displ.:     0.2040620 α      in ANC's #1, #2, #6, ...

........................................................................
.............................. CYCLE   13 ..............................
........................................................................
   1     -9.3203185 -0.932032E+01  0.980E-01    5.33       0.0  T
   2     -9.3201454  0.173086E-03  0.612E-01    5.51       1.0  T
   3     -9.3200541  0.913521E-04  0.579E-01    5.35       1.0  T
   4     -9.3210832 -0.102914E-02  0.698E-02    5.45       1.0  T
   5     -9.3210843 -0.106959E-05  0.332E-02    5.46       1.3  T
   6     -9.3210860 -0.169608E-05  0.126E-02    5.46       3.5  T
   7     -9.3210861 -0.165867E-06  0.985E-04    5.46      45.4  T
   8     -9.3210861 -0.551823E-09  0.401E-04    5.46     111.5  T
     SCC iter.                  ...        0 min,  0.001 sec
     gradient                   ...        0 min,  0.001 sec
 * total energy  :    -9.1979299 Eh     change       -0.5826029E-02 Eh
   gradient norm :     0.0450797 Eh/α   predicted    -0.8717043E-02 (  49.62%)
   displ. norm   :     0.8320831 α      lambda       -0.2691390E-01
   maximum displ.:     0.5923762 α      in ANC's #1, #2, #4, ...

........................................................................
.............................. CYCLE   14 ..............................
........................................................................
   1     -9.3372223 -0.933722E+01  0.286E+00    4.62       0.0  T
   2     -9.3350241  0.219825E-02  0.182E+00    4.35       1.0  T
   3     -9.3267667  0.825735E-02  0.193E+00    4.78       1.0  T
   4     -9.3410992 -0.143325E-01  0.213E-01    4.50       1.0  T
   5     -9.3411480 -0.488507E-04  0.682E-02    4.48       1.0  T
   6     -9.3411514 -0.333492E-05  0.238E-02    4.48       1.9  T
   7     -9.3411517 -0.336100E-06  0.341E-03    4.48      13.1  T
   8     -9.3411517 -0.335741E-07  0.146E-03    4.48      30.7  T
   9     -9.3411517 -0.711775E-08  0.184E-04    4.48     242.7  T
  10     -9.3411517 -0.144791E-10  0.700E-05    4.48     639.3  T
     SCC iter.                  ...        0 min,  0.001 sec
     gradient                   ...        0 min,  0.001 sec
 * total energy  :    -9.2204715 Eh     change       -0.2254167E-01 Eh
   gradient norm :     0.1055899 Eh/α   predicted    -0.2277400E-01 (   1.03%)
   displ. norm   :     0.7119072 α      lambda       -0.3569986E-01
   maximum displ.:     0.4252107 α      in ANC's #4, #2, #5, ...

........................................................................
.............................. CYCLE   15 ..............................
........................................................................
   1     -9.3758710 -0.937587E+01  0.211E+00    4.67       0.0  T
   2     -9.3757954  0.756141E-04  0.128E+00    4.64       1.0  T
   3     -9.3711569  0.463852E-02  0.100E+00    4.78       1.0  T
   4     -9.3760982 -0.494129E-02  0.722E-02    4.68       1.0  T
   5     -9.3761026 -0.437051E-05  0.255E-02    4.67       1.8  T
   6     -9.3761033 -0.756735E-06  0.926E-03    4.67       4.8  T
   7     -9.3761036 -0.258191E-06  0.223E-03    4.67      20.0  T
   8     -9.3761036 -0.163446E-07  0.609E-04    4.67      73.4  T
   9     -9.3761036 -0.126447E-08  0.117E-04    4.67     383.4  T
     SCC iter.                  ...        0 min,  0.001 sec
     gradient                   ...        0 min,  0.001 sec
 * total energy  :    -9.2431827 Eh     change       -0.2271112E-01 Eh
   gradient norm :     0.1509849 Eh/α   predicted    -0.2689649E-01 (  18.43%)
   displ. norm   :     0.5207348 α      lambda       -0.3596684E-01
   maximum displ.:     0.4051657 α      in ANC's #1, #2, #4, ...

........................................................................
.............................. CYCLE   16 ..............................
........................................................................
   1     -9.4219148 -0.942191E+01  0.196E+00    5.34       0.0  T
   2     -9.4206395  0.127527E-02  0.161E+00    5.43       1.0  T
   3     -9.4240613 -0.342176E-02  0.968E-01    5.31       1.0  T
   4     -9.4260329 -0.197158E-02  0.205E-01    5.35       1.0  T
   5     -9.4260837 -0.507714E-04  0.403E-02    5.35       1.1  T
   6     -9.4260849 -0.122162E-05  0.120E-02    5.35       3.7  T
   7     -9.4260849 -0.269748E-07  0.263E-03    5.35      17.0  T
   8     -9.4260849 -0.122422E-07  0.813E-04    5.35      55.0  T
   9     -9.4260849 -0.639542E-09  0.178E-04    5.35     251.9  T
     SCC iter.                  ...        0 min,  0.001 sec
     gradient                   ...        0 min,  0.001 sec
 * total energy  :    -9.2601714 Eh     change       -0.1698870E-01 Eh
   gradient norm :     0.0754761 Eh/α   predicted    -0.2285989E-01 (  34.56%)
   displ. norm   :     0.5419055 α      lambda       -0.2116127E-01
   maximum displ.:     0.3641389 α      in ANC's #4, #2, #5, ...

........................................................................
.............................. CYCLE   17 ..............................
........................................................................
   1     -9.4387232 -0.943872E+01  0.148E+00    6.49       0.0  T
   2     -9.4387969 -0.736851E-04  0.126E+00    6.49       1.0  T
   3     -9.4425773 -0.378044E-02  0.639E-01    6.45       1.0  T
   4     -9.4428377 -0.260394E-03  0.975E-02    6.45       1.0  T
   5     -9.4428505 -0.127318E-04  0.181E-02    6.45       2.5  T
   6     -9.4428506 -0.995637E-07  0.299E-03    6.45      14.9  T
   7     -9.4428506 -0.409473E-08  0.116E-03    6.45      38.4  T
   8     -9.4428506 -0.170002E-08  0.235E-04    6.45     190.1  T
   9     -9.4428506 -0.492779E-10  0.501E-05    6.45     892.4  T
     SCC iter.                  ...        0 min,  0.001 sec
     gradient                   ...        0 min,  0.001 sec
 * total energy  :    -9.2603088 Eh     change       -0.1374814E-03 Eh
   gradient norm :     0.1835543 Eh/α   predicted    -0.1368776E-01 (9856.09%)
   displ. norm   :     0.1805960 α      lambda       -0.1987061E-01
   maximum displ.:     0.1264221 α      in ANC's #1, #5, #3, ...

........................................................................
.............................. CYCLE   18 ..............................
........................................................................
   1     -9.4136397 -0.941364E+01  0.699E-01    5.90       0.0  T
   2     -9.4137268 -0.870655E-04  0.491E-01    5.92       1.0  T
   3     -9.4138765 -0.149725E-03  0.389E-01    5.94       1.0  T
   4     -9.4142441 -0.367634E-03  0.806E-02    5.93       1.0  T
   5     -9.4142512 -0.703830E-05  0.140E-02    5.93       3.2  T
   6     -9.4142512 -0.591296E-07  0.200E-03    5.93      22.3  T
   7     -9.4142512 -0.235680E-08  0.799E-04    5.93      56.0  T
   8     -9.4142512 -0.760549E-09  0.244E-04    5.93     183.1  T
     SCC iter.                  ...        0 min,  0.001 sec
     gradient                   ...        0 min,  0.001 sec
 * total energy  :    -9.2699751 Eh     change       -0.9666225E-02 Eh
   gradient norm :     0.0591148 Eh/α   predicted    -0.1025935E-01 (   6.14%)
   displ. norm   :     0.2746492 α      lambda       -0.8940583E-02
   maximum displ.:     0.1587748 α      in ANC's #1, #4, #2, ...

........................................................................
.............................. CYCLE   19 ..............................
........................................................................
   1     -9.4444647 -0.944446E+01  0.620E-01    6.23       0.0  T
   2     -9.4442738  0.190927E-03  0.475E-01    6.22       1.0  T
   3     -9.4449051 -0.631309E-03  0.296E-01    6.24       1.0  T
   4     -9.4450439 -0.138731E-03  0.343E-02    6.24       1.3  T
   5     -9.4450442 -0.314600E-06  0.141E-02    6.24       3.2  T
   6     -9.4450443 -0.105067E-06  0.209E-03    6.24      21.4  T
   7     -9.4450443 -0.274628E-08  0.786E-04    6.24      56.9  T
   8     -9.4450443 -0.110820E-08  0.183E-04    6.24     244.4  T
     SCC iter.                  ...        0 min,  0.001 sec
     gradient                   ...        0 min,  0.001 sec
 * total energy  :    -9.2712756 Eh     change       -0.1300514E-02 Eh
   gradient norm :     0.0490478 Eh/α   predicted    -0.4807491E-02 ( 269.66%)
   displ. norm   :     0.2141250 α      lambda       -0.6096331E-02
   maximum displ.:     0.1406025 α      in ANC's #4, #2, #5, ...

........................................................................
.............................. CYCLE   20 ..............................
........................................................................
   1     -9.4368626 -0.943686E+01  0.545E-01    6.45       0.0  T
   2     -9.4367858  0.768586E-04  0.407E-01    6.45       1.0  T
   3     -9.4369467 -0.160881E-03  0.278E-01    6.44       1.0  T
   4     -9.4371013 -0.154620E-03  0.128E-02    6.45       3.5  T
   5     -9.4371014 -0.139093E-06  0.678E-03    6.45       6.6  T
   6     -9.4371014 -0.234946E-07  0.166E-03    6.45      27.0  T
   7     -9.4371014 -0.141267E-08  0.189E-04    6.45     236.7  T
   8     -9.4371014 -0.314415E-11  0.118E-04    6.45     377.6  T
     SCC iter.                  ...        0 min,  0.001 sec
     gradient                   ...        0 min,  0.001 sec
 * total energy  :    -9.2745344 Eh     change       -0.3258833E-02 Eh
   gradient norm :     0.0347132 Eh/α   predicted    -0.3187922E-02 (  -2.18%)
   displ. norm   :     0.0697667 α      lambda       -0.1365217E-02
   maximum displ.:     0.0447456 α      in ANC's #2, #1, #6, ...
 * RMSD in coord.:     1.6915430 α      energy gain  -0.1640348E+00 Eh

generating ANC from model Hessian ...
Using Lindh-Hessian (1995)
 Shifting diagonal of input Hessian by    9.7311376677037716E-003
 Lowest  eigenvalues of input Hessian
   -0.000000   -0.000000   -0.000000   -0.000000    0.000000    0.000000
    0.010000    0.016138    0.129623    0.268112    0.461141    0.901390
    1.170497    1.375798    2.735569
 Highest eigenvalues
    0.268112    0.461141    0.901390    1.170497    1.375798    2.735569


........................................................................
.............................. CYCLE   21 ..............................
........................................................................
   1     -9.4397850 -0.943979E+01  0.161E-01    6.51       0.0  T
   2     -9.4397862 -0.121286E-05  0.101E-01    6.50       1.0  T
   3     -9.4397695  0.167002E-04  0.872E-02    6.50       1.0  T
   4     -9.4397960 -0.264455E-04  0.116E-02    6.50       3.9  T
   5     -9.4397961 -0.106988E-06  0.416E-03    6.50      10.8  T
   6     -9.4397961 -0.929664E-08  0.114E-03    6.50      39.2  T
   7     -9.4397961 -0.841851E-09  0.260E-04    6.50     172.0  T
   8     -9.4397961 -0.621192E-10  0.559E-05    6.50     800.0  T
     SCC iter.                  ...        0 min,  0.001 sec
     gradient                   ...        0 min,  0.001 sec
 * total energy  :    -9.2756288 Eh     change       -0.1094361E-02 Eh
   gradient norm :     0.0291497 Eh/α   predicted     0.0000000E+00 (-100.00%)
   displ. norm   :     0.2770237 α      lambda       -0.2708625E-02
   maximum displ.:     0.2455067 α      in ANC's #1, #2, #3, ...

........................................................................
.............................. CYCLE   22 ..............................
........................................................................
   1     -9.4382468 -0.943825E+01  0.806E-01    6.49       0.0  T
   2     -9.4382490 -0.220402E-05  0.488E-01    6.49       1.0  T
   3     -9.4380890  0.160017E-03  0.187E-01    6.50       1.0  T
   4     -9.4382614 -0.172356E-03  0.169E-02    6.49       2.6  T
   5     -9.4382616 -0.210390E-06  0.274E-03    6.49      16.3  T
   6     -9.4382616 -0.238044E-08  0.116E-03    6.49      38.6  T
   7     -9.4382616 -0.923267E-09  0.335E-04    6.49     133.5  T
   8     -9.4382616 -0.744365E-10  0.486E-05    6.49     920.7  T
     SCC iter.                  ...        0 min,  0.001 sec
     gradient                   ...        0 min,  0.001 sec
 * total energy  :    -9.2765530 Eh     change       -0.9242516E-03 Eh
   gradient norm :     0.0216448 Eh/α   predicted    -0.1458244E-02 (  57.78%)
   displ. norm   :     0.2262205 α      lambda       -0.3917543E-02
   maximum displ.:     0.1371967 α      in ANC's #3, #1, #4, ...

........................................................................
.............................. CYCLE   23 ..............................
........................................................................
   1     -9.4557289 -0.945573E+01  0.731E-01    6.71       0.0  T
   2     -9.4557588 -0.298758E-04  0.459E-01    6.70       1.0  T
   3     -9.4555541  0.204655E-03  0.216E-01    6.69       1.0  T
   4     -9.4557792 -0.225030E-03  0.317E-02    6.69       1.4  T
   5     -9.4557813 -0.211771E-05  0.879E-03    6.70       5.1  T
   6     -9.4557813 -0.336811E-07  0.277E-03    6.70      16.1  T
   7     -9.4557813 -0.200808E-08  0.281E-04    6.70     159.2  T
   8     -9.4557813 -0.227587E-10  0.159E-04    6.70     280.9  T
     SCC iter.                  ...        0 min,  0.001 sec
     gradient                   ...        0 min,  0.001 sec
 * total energy  :    -9.2776400 Eh     change       -0.1086930E-02 Eh
   gradient norm :     0.0318602 Eh/α   predicted    -0.2059011E-02 (  89.43%)
   displ. norm   :     0.1843355 α      lambda       -0.1513089E-02
   maximum displ.:     0.1636382 α      in ANC's #2, #1, #3, ...

........................................................................
.............................. CYCLE   24 ..............................
........................................................................
   1     -9.4513739 -0.945137E+01  0.595E-01    6.69       0.0  T
   2     -9.4513879 -0.139644E-04  0.366E-01    6.69       1.0  T
   3     -9.4513088  0.790682E-04  0.138E-01    6.69       1.0  T
   4     -9.4513981 -0.892995E-04  0.235E-02    6.69       1.9  T
   5     -9.4513992 -0.108394E-05  0.882E-03    6.69       5.1  T
   6     -9.4513992 -0.188547E-07  0.135E-03    6.69      33.1  T
   7     -9.4513992 -0.118300E-08  0.401E-04    6.69     111.6  T
   8     -9.4513992 -0.103920E-09  0.166E-04    6.69     269.8  T
     SCC iter.                  ...        0 min,  0.001 sec
     gradient                   ...        0 min,  0.001 sec
 * total energy  :    -9.2783540 Eh     change       -0.7140346E-03 Eh
   gradient norm :     0.0105891 Eh/α   predicted    -0.7822532E-03 (   9.55%)
   displ. norm   :     0.1026653 α      lambda       -0.6722610E-03
   maximum displ.:     0.0669665 α      in ANC's #2, #3, #1, ...

........................................................................
.............................. CYCLE   25 ..............................
........................................................................
   1     -9.4477431 -0.944774E+01  0.373E-01    6.67       0.0  T
   2     -9.4477480 -0.486341E-05  0.234E-01    6.67       1.0  T
   3     -9.4477402  0.780585E-05  0.491E-02    6.67       1.0  T
   4     -9.4477516 -0.114015E-04  0.852E-03    6.67       5.2  T
   5     -9.4477516 -0.373885E-07  0.299E-03    6.67      14.9  T
   6     -9.4477516 -0.992104E-09  0.693E-04    6.67      64.5  T
   7     -9.4477516 -0.240078E-09  0.125E-04    6.67     358.0  T
     SCC iter.                  ...        0 min,  0.001 sec
     gradient                   ...        0 min,  0.001 sec
 * total energy  :    -9.2785832 Eh     change       -0.2292054E-03 Eh
   gradient norm :     0.0076198 Eh/α   predicted    -0.3396729E-03 (  48.20%)
   displ. norm   :     0.0339141 α      lambda       -0.1042424E-03
   maximum displ.:     0.0248133 α      in ANC's #2, #1, #4, ...

........................................................................
.............................. CYCLE   26 ..............................
........................................................................
   1     -9.4491505 -0.944915E+01  0.963E-02    6.67       0.0  T
   2     -9.4491508 -0.243702E-06  0.584E-02    6.67       1.0  T
   3     -9.4491459  0.482401E-05  0.352E-02    6.68       1.3  T
   4     -9.4491513 -0.536313E-05  0.318E-03    6.67      14.1  T
   5     -9.4491513 -0.983591E-08  0.140E-03    6.67      31.9  T
   6     -9.4491513 -0.585434E-09  0.319E-04    6.67     140.2  T
   7     -9.4491513 -0.624354E-10  0.698E-05    6.67     640.6  T
     SCC iter.                  ...        0 min,  0.001 sec
     gradient                   ...        0 min,  0.001 sec
 * total energy  :    -9.2786469 Eh     change       -0.6365855E-04 Eh
   gradient norm :     0.0022686 Eh/α   predicted    -0.5218190E-04 ( -18.03%)
   displ. norm   :     0.0152203 α      lambda       -0.1675885E-04
   maximum displ.:     0.0099172 α      in ANC's #3, #4, #2, ...

........................................................................
.............................. CYCLE   27 ..............................
........................................................................
   1     -9.4495885 -0.944959E+01  0.424E-02    6.68       0.0  T
   2     -9.4495885 -0.118213E-07  0.255E-02    6.68       1.8  T
   3     -9.4495872  0.125387E-05  0.182E-02    6.68       2.5  T
   4     -9.4495886 -0.139277E-05  0.912E-04    6.68      49.0  T
   5     -9.4495886 -0.976121E-09  0.431E-04    6.68     103.8  T
   6     -9.4495886 -0.610285E-10  0.846E-05    6.68     528.8  T
     SCC iter.                  ...        0 min,  0.000 sec
     gradient                   ...        0 min,  0.001 sec
 * total energy  :    -9.2786579 Eh     change       -0.1107250E-04 Eh
   gradient norm :     0.0014146 Eh/α   predicted    -0.8381120E-05 ( -24.31%)
   displ. norm   :     0.0147356 α      lambda       -0.6795798E-05
   maximum displ.:     0.0100293 α      in ANC's #4, #3, #1, ...

........................................................................
.............................. CYCLE   28 ..............................
........................................................................
   1     -9.4498912 -0.944989E+01  0.456E-02    6.68       0.0  T
   2     -9.4498912 -0.538319E-08  0.278E-02    6.68       1.6  T
   3     -9.4498896  0.154790E-05  0.198E-02    6.68       2.3  T
   4     -9.4498913 -0.171223E-05  0.679E-04    6.68      65.9  T
   5     -9.4498913 -0.636886E-09  0.310E-04    6.68     144.3  T
   6     -9.4498913 -0.941647E-11  0.211E-05    6.68    2120.0  T
     SCC iter.                  ...        0 min,  0.000 sec
     gradient                   ...        0 min,  0.001 sec
 * total energy  :    -9.2786643 Eh     change       -0.6368473E-05 Eh
   gradient norm :     0.0015916 Eh/α   predicted    -0.3399414E-05 ( -46.62%)
   displ. norm   :     0.0097606 α      lambda       -0.5613676E-05
   maximum displ.:     0.0056925 α      in ANC's #1, #6, #4, ...

........................................................................
.............................. CYCLE   29 ..............................
........................................................................
   1     -9.4499045 -0.944990E+01  0.328E-02    6.68       0.0  T
   2     -9.4499045 -0.153169E-07  0.201E-02    6.68       2.2  T
   3     -9.4499044  0.108283E-06  0.505E-03    6.68       8.9  T
   4     -9.4499045 -0.120504E-06  0.621E-04    6.68      72.0  T
   5     -9.4499045 -0.423107E-09  0.328E-04    6.68     136.3  T
     SCC iter.                  ...        0 min,  0.000 sec
     gradient                   ...        0 min,  0.001 sec
 * total energy  :    -9.2786716 Eh     change       -0.7266028E-05 Eh
   gradient norm :     0.0015622 Eh/α   predicted    -0.2806486E-05 ( -61.38%)
   displ. norm   :     0.0292007 α      lambda       -0.1891875E-04
   maximum displ.:     0.0221457 α      in ANC's #6, #4, #1, ...

........................................................................
.............................. CYCLE   30 ..............................
........................................................................
   1     -9.4498989 -0.944990E+01  0.111E-01    6.68       0.0  T
   2     -9.4498990 -0.144218E-06  0.678E-02    6.68       1.0  T
   3     -9.4498987  0.322116E-06  0.974E-03    6.68       4.6  T
   4     -9.4498992 -0.440617E-06  0.251E-03    6.68      17.8  T
   5     -9.4498992 -0.412938E-08  0.361E-04    6.68     123.7  T
   6     -9.4498992 -0.639595E-10  0.158E-04    6.68     283.5  T
     SCC iter.                  ...        0 min,  0.000 sec
     gradient                   ...        0 min,  0.001 sec
 * total energy  :    -9.2786893 Eh     change       -0.1772002E-04 Eh
   gradient norm :     0.0012915 Eh/α   predicted    -0.9461322E-05 ( -46.61%)
   displ. norm   :     0.0110013 α      lambda       -0.5102951E-05
   maximum displ.:     0.0097886 α      in ANC's #6, #5, #8, ...

........................................................................
.............................. CYCLE   31 ..............................
........................................................................
   1     -9.4496570 -0.944966E+01  0.485E-02    6.67       0.0  T
   2     -9.4496570 -0.406028E-07  0.299E-02    6.67       1.5  T
   3     -9.4496570  0.193067E-07  0.334E-03    6.67      13.4  T
   4     -9.4496570 -0.449880E-07  0.114E-03    6.67      39.3  T
   5     -9.4496570 -0.122595E-08  0.401E-04    6.67     111.6  T
   6     -9.4496570 -0.257092E-10  0.454E-05    6.67     986.1  T
     SCC iter.                  ...        0 min,  0.000 sec
     gradient                   ...        0 min,  0.001 sec
 * total energy  :    -9.2786945 Eh     change       -0.5180106E-05 Eh
   gradient norm :     0.0009222 Eh/α   predicted    -0.2550456E-05 ( -50.76%)
   displ. norm   :     0.0077046 α      lambda       -0.2708299E-05
   maximum displ.:     0.0052311 α      in ANC's #6, #1, #4, ...

........................................................................
.............................. CYCLE   32 ..............................
........................................................................
   1     -9.4499202 -0.944992E+01  0.324E-02    6.68       0.0  T
   2     -9.4499202 -0.362702E-07  0.201E-02    6.68       2.2  T
   3     -9.4499194  0.768146E-06  0.137E-02    6.68       3.3  T
   4     -9.4499203 -0.847701E-06  0.812E-04    6.68      55.1  T
   5     -9.4499203 -0.866516E-09  0.355E-04    6.68     126.0  T
     SCC iter.                  ...        0 min,  0.001 sec
     gradient                   ...        0 min,  0.001 sec
 * total energy  :    -9.2786964 Eh     change       -0.1904350E-05 Eh
   gradient norm :     0.0010001 Eh/α   predicted    -0.1353978E-05 ( -28.90%)
   displ. norm   :     0.0033370 α      lambda       -0.5968152E-06
   maximum displ.:     0.0023891 α      in ANC's #2, #3, #4, ...

........................................................................
.............................. CYCLE   33 ..............................
........................................................................
   1     -9.4496519 -0.944965E+01  0.787E-03    6.67       0.0  T
   2     -9.4496519  0.339302E-10  0.505E-03    6.67       8.9  T
   3     -9.4496519  0.474238E-07  0.423E-03    6.67      10.6  T
   4     -9.4496519 -0.645320E-07  0.364E-04    6.67     122.8  T
   5     -9.4496519 -0.167480E-09  0.171E-04    6.67     261.4  T
     SCC iter.                  ...        0 min,  0.000 sec
     gradient                   ...        0 min,  0.001 sec
 * total energy  :    -9.2786967 Eh     change       -0.3004111E-06 Eh
   gradient norm :     0.0004232 Eh/α   predicted    -0.2970105E-06 (  -1.13%)
   displ. norm   :     0.0011885 α      lambda       -0.9796028E-07
   maximum displ.:     0.0007714 α      in ANC's #6, #2, #5, ...

   *** GEOMETRY OPTIMIZATION CONVERGED AFTER 33 ITERATIONS ***

------------------------------------------------------------------------
 total energy gain   :        -0.1681971 Eh     -105.5453 kcal/mol
 total RMSD          :         1.7976409 a0        0.9513 Å
 total power (kW/mol):       -13.3818593 (step)-6017.4210 (real)
------------------------------------------------------------------------

 ANCopt (total)                0 d,  0 h,  0 min,  0.073 sec
 optimizer setup                ...        0 min,  0.000 sec (  0.096%)
 model hessian                  ...        0 min,  0.000 sec (  0.188%)
 ANC generation                 ...        0 min,  0.000 sec (  0.147%)
 coordinate transformation      ...        0 min,  0.000 sec (  0.113%)
 single point calculation       ...        0 min,  0.070 sec ( 95.519%)
 optimization log               ...        0 min,  0.001 sec (  1.242%)
 hessian update                 ...        0 min,  0.000 sec (  0.128%)
 rational function              ...        0 min,  0.001 sec (  1.237%)

================
 final structure:
================
5
 xtb: 6.2.2 (9d81278992624c895f80dd42a50cac0aa55982e2)
C         0.02517455365979   -0.13281278976752    0.11509163120585
C        -1.07337559861646    0.29139544755327   -0.09414915549569
O         1.20441469014048   -0.62609486244084    0.37556007185199
H        -2.04298878254506    0.64453715065266   -0.26086617700266
H         1.88677413736126   -0.17702494599754   -0.13563637055944

 Bond Distances (Angstroems)
 ---------------------------
C1-C2=1.1961         C1-O3=1.3045         C2-C1=1.1961         C2-H4=1.0453         O3-C1=1.3045         O3-H5=0.9636         
H4-C2=1.0453         H5-O3=0.9636         
 C  H  Rav=1.0453 sigma=0.0000  Rmin=1.0453  Rmax=1.0453     1
 C  C  Rav=1.1961 sigma=0.0000  Rmin=1.1961  Rmax=1.1961     1
 O  H  Rav=0.9636 sigma=0.0000  Rmin=0.9636  Rmax=0.9636     1
 O  C  Rav=1.3045 sigma=0.0000  Rmin=1.3045  Rmax=1.3045     1

 selected bond angles (degree)
 --------------------
O3-C1-C2=177.88                H4-C2-C1=178.59                H5-O3-C1=110.98                

 selected dihedral angles (degree)
 ---------------------------------
H4-C2-C1-O3=356.53            H5-O3-C1-C2=181.50            
           -------------------------------------------------
          |                Final Singlepoint                |
           -------------------------------------------------

          ...................................................
          :                      SETUP                      :
          :.................................................:
          :  # basis functions                  14          :
          :  # atomic orbitals                  14          :
          :  # shells                            8          :
          :  # electrons                        16          :
          :  max. iterations                   250          :
          :  Hamiltonian                  GFN2-xTB          :
          :  restarted?                      false          :
          :  GBSA solvation                  false          :
          :  PC potential                    false          :
          :  electronic temp.          300.0000000     K    :
          :  accuracy                    1.0000000          :
          :  -> integral cutoff          0.2500000E+02      :
          :  -> integral neglect         0.1000000E-07      :
          :  -> SCF convergence          0.1000000E-05 Eh   :
          :  -> wf. convergence          0.1000000E-03 e    :
          :  Broyden damping             0.4000000          :
          ...................................................

 iter      E             dE          RMSdq      gap      omega  full diag
   1     -9.4496519 -0.944965E+01  0.380E-05    6.67       0.0  T
   2     -9.4496519 -0.451195E-12  0.218E-05    6.67    2049.9  T
   3     -9.4496519  0.595080E-12  0.227E-05    6.67    1973.0  T

   *** convergence criteria satisfied after 3 iterations ***

         #    Occupation            Energy/Eh            Energy/eV
      -------------------------------------------------------------
         1        2.0000           -0.7150905             -19.4586
         2        2.0000           -0.6311057             -17.1733
         3        2.0000           -0.5956307             -16.2079
         4        2.0000           -0.5520274             -15.0214
         5        2.0000           -0.5234312             -14.2433
         6        2.0000           -0.4904073             -13.3447
         7        2.0000           -0.4074357             -11.0869
         8        2.0000           -0.3877922             -10.5524 (HOMO)
         9                         -0.1426650              -3.8821 (LUMO)
        10                         -0.1243524              -3.3838
        11                          0.0391370               1.0650
        12                          0.1652336               4.4962
        13                          0.3722853              10.1304
        14                          1.4886836              40.5091
      -------------------------------------------------------------
                  HL-Gap            0.2451271 Eh            6.6702 eV
             Fermi-level           -0.2652286 Eh           -7.2172 eV

 SCC (total)                   0 d,  0 h,  0 min,  0.002 sec
 SCC setup                      ...        0 min,  0.000 sec (  2.137%)
 Dispersion                     ...        0 min,  0.000 sec (  0.360%)
 integral evaluation            ...        0 min,  0.001 sec ( 34.768%)
 zeroth order Hamiltonian       ...        0 min,  0.000 sec (  1.164%)
 iterations                     ...        0 min,  0.001 sec ( 25.069%)
 molecular gradient             ...        0 min,  0.001 sec ( 31.944%)
 printout                       ...        0 min,  0.000 sec (  4.168%)

         :::::::::::::::::::::::::::::::::::::::::::::::::::::
         ::                     SUMMARY                     ::
         :::::::::::::::::::::::::::::::::::::::::::::::::::::
         :: total energy              -9.278696669918 Eh    ::
         :: gradient norm              0.000423473187 Eh/a0 ::
         :: HOMO-LUMO gap              6.670248720208 eV    ::
         ::.................................................::
         :: SCC energy                -9.449651934697 Eh    ::
         :: -> isotropic ES            0.017639888117 Eh    ::
         :: -> anisotropic ES          0.004984468678 Eh    ::
         :: -> anisotropic XC          0.005190267274 Eh    ::
         :: -> dispersion             -0.001322880562 Eh    ::
         :: repulsion energy           0.170955357968 Eh    ::
         :: add. restraining           0.000000000000 Eh    ::
         :::::::::::::::::::::::::::::::::::::::::::::::::::::

           ------------------------------------------------- 
          |                Numerical Hessian                |
           ------------------------------------------------- 
step length          :   0.00500
SCC accuracy         :   0.30000
Hessian scale factor :   1.00000
frozen atoms in %    :   0.00000    0
RMS gradient         :   0.00042
estimated CPU  time      0.00 min
estimated wall time      0.00 min

writing file <hessian>.

 projected vibrational frequencies (cm-1)
eigval :       -0.00    -0.00    -0.00     0.00     0.00     0.00
eigval :      270.67   299.28   593.08   634.56  1086.29  1155.02
eigval :     2350.48  3434.59  3501.27
           -------------------------------------------------
          |                Property Printout                |
           -------------------------------------------------

    * Orbital Energies and Occupations

         #    Occupation            Energy/Eh            Energy/eV
      -------------------------------------------------------------
         1        2.0000           -0.7150906             -19.4586
         2        2.0000           -0.6311057             -17.1733
         3        2.0000           -0.5956307             -16.2079
         4        2.0000           -0.5520274             -15.0214
         5        2.0000           -0.5234312             -14.2433
         6        2.0000           -0.4904072             -13.3447
         7        2.0000           -0.4074357             -11.0869
         8        2.0000           -0.3877921             -10.5524 (HOMO)
         9                         -0.1426650              -3.8821 (LUMO)
        10                         -0.1243524              -3.3838
        11                          0.0391370               1.0650
        12                          0.1652336               4.4962
        13                          0.3722853              10.1304
        14                          1.4886837              40.5091
      -------------------------------------------------------------
                  HL-Gap            0.2451271 Eh            6.6702 eV
             Fermi-level           -0.2652286 Eh           -7.2172 eV

     #   Z        covCN         q      C6AA      α(0)
     1   6 C      1.836     0.111    28.402     8.610
     2   6 C      1.909    -0.166    35.865     9.672
     3   8 O      1.660    -0.334    19.615     5.979
     4   1 H      0.928     0.085     1.932     2.173
     5   1 H      0.805     0.304     0.708     1.322

 Mol. C6AA /au·bohr⁶  :        321.217765
 Mol. C8AA /au·bohr⁸  :       7790.904361
 Mol. α(0) /au        :         27.755107


Wiberg/Mayer (AO) data.
largest (>0.10) Wiberg bond orders for each atom
          total WBO             WBO to atom ...
     1  C   3.930        C    2 2.784    O    3 1.136
     2  C   3.959        C    1 2.784    H    4 0.973    O    3 0.170
     3  O   2.191        C    1 1.136    H    5 0.873    C    2 0.170
     4  H   0.993        C    2 0.973
     5  H   0.907        O    3 0.873

MOs/occ written to file <molden.input>


molecular dipole:
                 x           y           z       tot (Debye)
 q only:        0.340       0.277      -0.303
   full:        0.440       0.397      -0.427       1.857
molecular quadrupole (traceless):
                xx          xy          yy          xz          yz          zz
 q only:        2.955       0.485      -1.645      -1.074       0.399      -1.310
  q+dip:        5.843      -0.317      -3.020      -1.036       0.435      -2.823
   full:        4.502       0.613      -2.475      -1.542       0.484      -2.026

           -------------------------------------------------
          |                Geometry Summary                 |
           -------------------------------------------------

      molecular mass/u    :       42.0367582
   center of mass at/Å    :        0.1551684      -0.1817754       0.1394164
  moments of inertia/u·Å² :        0.7416626E+00   0.5145290E+02   0.5219456E+02
rotational constants/cm⁻¹ :        0.2272952E+02   0.3276323E+00   0.3229768E+00

 * 4 selected distances

     #   Z        #   Z                                     value/Å
     1   6 C      2   6 C                                 1.1960547
     1   6 C      3   8 O                                 1.3045223 (max)
     2   6 C      4   1 H                                 1.0453006
     3   8 O      5   1 H                                 0.9636389 (min)

 * 4 distinct bonds (by element types)

   Z      Z             #   av. dist./Å        max./Å        min./Å
   1 H    6 C           1     1.0453006     1.0453006     1.0453006
   6 C    6 C           1     1.1960547     1.1960547     1.1960547
   1 H    8 O           1     0.9636389     0.9636389     0.9636389
   6 C    8 O           1     1.3045223     1.3045223     1.3045223

           -------------------------------------------------
          |               Frequency Printout                |
           -------------------------------------------------
 projected vibrational frequencies (cm-1)
eigval :       -0.00    -0.00    -0.00     0.00     0.00     0.00
eigval :      270.67   299.28   593.08   634.56  1086.29  1155.02
eigval :     2350.48  3434.59  3501.27
 reduced masses (amu)
   1:  2.29   2: 10.81   3: 11.38   4: 15.00   5: 12.92   6: 12.55   7: 11.56   8: 11.53
   9:  3.34  10:  2.36  11: 13.78  12:  3.04  13: 11.14  14:  2.54  15:  1.87
 IR intensities (amu)
   1:  0.41   2:  0.04   3:  0.20   4:  0.39   5:  0.18   6:  0.25   7:  0.55   8:  0.34
   9:  0.01  10:  0.22  11:  1.52  12:  0.62  13:  1.70  14:  0.40  15:  0.20
 Raman intensities (amu)
   1:  0.00   2:  0.00   3:  0.00   4:  0.00   5:  0.00   6:  0.00   7:  0.00   8:  0.00
Molecule has the following symmetry elements: (sigma) 
It seems to be the Cs point group
   9:  0.00  10:  0.00  11:  0.00  12:  0.00  13:  0.00  14:  0.00  15:  0.00
 output can be read by thermo (or use thermo option).
 writing <g98.out> molden fake output.
 recommended (thermochemical) frequency scaling factor: 1.0
           -------------------------------------------------
          |             Thermodynamic Functions             |
           -------------------------------------------------

cs  symmetry found (for desy threshold:  0.10E+00) used in thermo

          ...................................................
          :                      SETUP                      :
          :.................................................:
          :  # frequencies                           9      :
          :  # imaginary freq.                       0      :
          :  linear?                             false      :
          :  only rotor calc.                    false      :
          :  symmetry                               cs      :
          :  rotational number                       1      :
          :  scaling factor                  1.0000000      :
          :  rotor cutoff                   50.0000000 cm⁻¹ :
          :  imag. cutoff                  -20.0000000 cm⁻¹ :
          :.................................................:

    mode    ω/cm⁻¹     T·S(HO)/kcal·mol⁻¹    T·S(FR)/kcal·mol⁻¹   T·S(vib)
   ------------------------------------------------------------------------
       1    270.67    -0.00000 ( 99.88%)     0.01509 (  0.12%)     0.00002
       2    299.28    -0.00000 ( 99.92%)     0.01609 (  0.08%)     0.00001
   ------------------------------------------------------------------------

   temp. (K)  partition function   enthalpy   heat capacity  entropy
                                   cal/mol     cal/K/mol   cal/K/mol   J/K/mol
 298.15  VIB   2.02                  772.734      5.940      3.985
         ROT  0.341E+04              888.752      2.981     19.146
         INT  0.687E+04             1661.486      8.920     23.131
         TR   0.264E+27             1481.254      4.968     37.118
         TOT                        3142.7404    13.8886    60.2489   252.0814

   temp. (K)  partition function   enthalpy   heat capacity  entropy
                                   cal/mol     cal/K/mol   cal/K/mol   J/K/mol
 120.00  VIB   1.07                   57.997      1.771      0.622
         ROT   871.                  357.707      2.981     16.433
         INT   933.                  415.704      4.752     17.055
         TR   0.673E+26              596.178      4.968     32.599
         TOT                        1011.8815     9.7204    49.6532   207.7492

   temp. (K)  partition function   enthalpy   heat capacity  entropy
                                   cal/mol     cal/K/mol   cal/K/mol   J/K/mol
 100.00  VIB   1.04                   28.312      1.197      0.353
         ROT   662.                  298.089      2.981     15.889
         INT   685.                  326.401      4.177     16.242
         TR   0.512E+26              496.815      4.968     31.693
         TOT                         823.2164     9.1456    47.9353   200.5612

   temp. (K)  partition function   enthalpy   heat capacity  entropy
                                   cal/mol     cal/K/mol   cal/K/mol   J/K/mol
  80.00  VIB   1.01                   10.008      0.643      0.150
         ROT   474.                  238.471      2.981     15.224
         INT   480.                  248.479      3.624     15.375
         TR   0.367E+26              397.452      4.968     30.585
         TOT                         645.9312     8.5920    45.9599   192.2961

   temp. (K)  partition function   enthalpy   heat capacity  entropy
                                   cal/mol     cal/K/mol   cal/K/mol   J/K/mol
  60.00  VIB   1.00                    1.832      0.206      0.035
         ROT   308.                  178.853      2.981     14.367
         INT   308.                  180.686      3.187     14.402
         TR   0.238E+26              298.089      4.968     29.157
         TOT                         478.7748     8.1552    43.5587   182.2496

   temp. (K)  partition function   enthalpy   heat capacity  entropy
                                   cal/mol     cal/K/mol   cal/K/mol   J/K/mol
  40.00  VIB   1.00                    0.064      0.016      0.001
         ROT   168.                  119.236      2.981     13.158
         INT   168.                  119.299      2.997     13.159
         TR   0.130E+26              198.726      4.968     27.143
         TOT                         318.0254     7.9650    40.3025   168.6258

   temp. (K)  partition function   enthalpy   heat capacity  entropy
                                   cal/mol     cal/K/mol   cal/K/mol   J/K/mol
  20.00  VIB   1.00                    0.000      0.000     -0.002
         ROT   59.2                   59.618      2.981     11.092
         INT   59.2                   59.618      2.981     11.090
         TR   0.458E+25               99.363      4.968     23.701
         TOT                         158.9808     7.9490    34.7912   145.5664

   temp. (K)  partition function   enthalpy   heat capacity  entropy
                                   cal/mol     cal/K/mol   cal/K/mol   J/K/mol
  10.00  VIB   1.00                    0.000      0.000     -0.003
         ROT   20.9                   29.809      2.981      9.026
         INT   20.9                   29.809      2.981      9.022
         TR   0.162E+25               49.681      4.968     20.259
         TOT                          79.4904     7.9490    29.2816   122.5143

       T/K    H(0)-H(T)+PV         H(T)/Eh          T*S/Eh         G(T)/Eh
   ------------------------------------------------------------------------
    298.15    0.500828E-02    0.353654E-01    0.286262E-01    0.673919E-02
    120.00    0.161254E-02    0.319697E-01    0.949530E-02    0.224744E-01
    100.00    0.131188E-02    0.316690E-01    0.763897E-02    0.240300E-01
     80.00    0.102936E-02    0.313865E-01    0.585934E-02    0.255271E-01
     60.00    0.762976E-03    0.311201E-01    0.416491E-02    0.269552E-01
     40.00    0.506806E-03    0.308639E-01    0.256905E-02    0.282949E-01
     20.00    0.253352E-03    0.306105E-01    0.110887E-02    0.295016E-01
     10.00    0.126676E-03    0.304838E-01    0.466632E-03    0.300172E-01 (used)
   ------------------------------------------------------------------------

         :::::::::::::::::::::::::::::::::::::::::::::::::::::
         ::                  THERMODYNAMIC                  ::
         :::::::::::::::::::::::::::::::::::::::::::::::::::::
         :: total free energy          -9.248679508390 Eh   ::
         ::.................................................::
         :: total energy               -9.278696669996 Eh   ::
         :: zero point energy           0.030357117867 Eh   ::
         :: G(RRHO) w/o ZPVE           -0.000339956261 Eh   ::
         :: G(RRHO) contrib.            0.030017161606 Eh   ::
         :::::::::::::::::::::::::::::::::::::::::::::::::::::

optimized geometry written to: xtbopt.xyz


           -------------------------------------------------
          | TOTAL ENERGY               -9.278696669996 Eh   |
          | TOTAL ENTHALPY             -9.248212876114 Eh   |
          | TOTAL FREE ENERGY          -9.248679508390 Eh   |
          | GRADIENT NORM               0.000423720583 Eh/α |
          | HOMO-LUMO GAP               6.670248049268 eV   |
           -------------------------------------------------

------------------------------------------------------------------------
 * finished run on 2020/05/12 at 11:45:13.746     
------------------------------------------------------------------------
 total:
 * wall-time:     0 d,  0 h,  0 min,  0.155 sec
 *  cpu-time:     0 d,  0 h,  0 min,  0.154 sec
 * ratio c/w:     0.994 speedup
 SCF:
 * wall-time:     0 d,  0 h,  0 min,  0.003 sec
 *  cpu-time:     0 d,  0 h,  0 min,  0.003 sec
 * ratio c/w:     0.995 speedup
 ANC optimizer:
 * wall-time:     0 d,  0 h,  0 min,  0.076 sec
 *  cpu-time:     0 d,  0 h,  0 min,  0.076 sec
 * ratio c/w:     0.998 speedup
 numerical hessian:
 * wall-time:     0 d,  0 h,  0 min,  0.058 sec
 *  cpu-time:     0 d,  0 h,  0 min,  0.058 sec
 * ratio c/w:     0.987 speedup

