5
 energy: -9.110499596441 gnorm: 0.195706357604 xtb: 6.2.2 (9d81278992624c895f80dd42a50cac0aa55982e2)
C        -0.32857100000000    0.02106100000000   -0.29290100000000
C        -1.41877300000000   -0.90611700000000    0.20164000000000
O         0.83360400000000   -0.19128400000000    0.44805700000000
H        -0.65920800000000    1.07424900000000   -0.17426500000000
H         1.57294700000000    0.00209100000000   -0.18253100000000
5
 energy: -9.154946769484 gnorm: 0.112045273258 xtb: 6.2.2 (9d81278992624c895f80dd42a50cac0aa55982e2)
C        -0.37220337372450    0.00466906906188   -0.12098258281434
C        -1.40975095678956   -0.87962272447245    0.13231267220971
O         0.88437051408663   -0.22242792339143    0.44285604325508
H        -0.66967849046311    1.07648752386119   -0.24409018629373
H         1.56726130689054    0.02089405494081   -0.21009594635672
5
 energy: -9.159453928624 gnorm: 0.206694871585 xtb: 6.2.2 (9d81278992624c895f80dd42a50cac0aa55982e2)
C        -0.40525812467274   -0.05248852043951   -0.02299388650880
C        -1.37485905976041   -0.77088692294004    0.08605946788595
O         0.89255905001787   -0.25322660179005    0.41021329331789
H        -0.66662617740344    1.00336399315164   -0.26472404705453
H         1.55418331181872    0.07323805201795   -0.20855482764051
5
 energy: -9.173269135267 gnorm: 0.038479863971 xtb: 6.2.2 (9d81278992624c895f80dd42a50cac0aa55982e2)
C        -0.37238038088748   -0.06643382066060    0.04450843805660
C        -1.47693372964550   -0.77953489435414    0.05604621888332
O         0.94425421345114   -0.23880016207746    0.42438935130010
H        -0.65670806884949    0.97995948558819   -0.28214403148747
H         1.56176696593134    0.10480939150401   -0.24279997675255
5
 energy: -9.176026059219 gnorm: 0.032664388396 xtb: 6.2.2 (9d81278992624c895f80dd42a50cac0aa55982e2)
C        -0.34948392229270   -0.08700642593803    0.04422416629345
C        -1.49221214334023   -0.72499704583380    0.05103651313590
O         0.95155635369175   -0.24593908570362    0.41635146547275
H        -0.66936939104385    0.92705634318234   -0.27077942577851
H         1.55950810298503    0.13088621429311   -0.24083271912359
5
 energy: -9.178665416056 gnorm: 0.032366243758 xtb: 6.2.2 (9d81278992624c895f80dd42a50cac0aa55982e2)
C        -0.31869413617094   -0.12188291111653    0.08230610025493
C        -1.51010325539652   -0.63843221029295    0.02831377312489
O         0.97642594800828   -0.26491912637019    0.40213172181253
H        -0.70506957452581    0.85879304450792   -0.27034755350263
H         1.55744001808499    0.16644120327176   -0.24240404168973
5
 energy: -9.179776274957 gnorm: 0.017603052844 xtb: 6.2.2 (9d81278992624c895f80dd42a50cac0aa55982e2)
C        -0.30085822067355   -0.13382564989940    0.09697032644837
C        -1.49370496286738   -0.58431063239604    0.01530989759618
O         0.98864790595101   -0.27297898073394    0.39302021072005
H        -0.75352374292430    0.82995113217984   -0.26760648038067
H         1.55943802051422    0.16116413084954   -0.23769395438392
5
 energy: -9.180302892135 gnorm: 0.033121822386 xtb: 6.2.2 (9d81278992624c895f80dd42a50cac0aa55982e2)
C        -0.27663426841322   -0.18049826173064    0.12259378442064
C        -1.51588596158940   -0.49261223028334    0.00236001201921
O         1.01995784244936   -0.31693696070305    0.37717331203771
H        -0.79633865216243    0.77541518386415   -0.27050036964532
H         1.56890003971569    0.21463226885287   -0.23162673883224
5
 energy: -9.181027192473 gnorm: 0.017615577992 xtb: 6.2.2 (9d81278992624c895f80dd42a50cac0aa55982e2)
C        -0.27378194312202   -0.17897129990967    0.11958757034242
C        -1.50458091991002   -0.48716233357733   -0.00599685979124
O         1.02521749945312   -0.29571256194295    0.38362352652348
H        -0.82299183222656    0.77761328662736   -0.26206715136214
H         1.57613619580549    0.18423290880258   -0.23514708571252
5
 energy: -9.182403155394 gnorm: 0.026567123935 xtb: 6.2.2 (9d81278992624c895f80dd42a50cac0aa55982e2)
C        -0.25164926840830   -0.20031933754770    0.11494422825187
C        -1.48560319198559   -0.42764031057892   -0.02190981321089
O         1.04305251898689   -0.28861696731895    0.39182357464948
H        -0.89535475583267    0.75750875750909   -0.24644209637680
H         1.58955369723968    0.15906785793649   -0.23841589331366
5
 energy: -9.184200527228 gnorm: 0.076918407696 xtb: 6.2.2 (9d81278992624c895f80dd42a50cac0aa55982e2)
C        -0.20765065487952   -0.23793453214660    0.13328086223536
C        -1.46681633394030   -0.31573932425929   -0.06182007829324
O         1.08336257736154   -0.27167324446656    0.40451529189006
H        -1.02238343038489    0.70573807679382   -0.22475045433585
H         1.61348684184318    0.11960902407864   -0.25122562149633
5
 energy: -9.192103832852 gnorm: 0.094704947563 xtb: 6.2.2 (9d81278992624c895f80dd42a50cac0aa55982e2)
C        -0.17309695984924   -0.24476016361321    0.12640431263279
C        -1.40936720866539   -0.26765010377108   -0.08981275939983
O         1.09666145936806   -0.24715226198948    0.44947920134791
H        -1.14595287090966    0.72256400004901   -0.20774576243040
H         1.63175458005623    0.03699852932477   -0.27832499215048
5
 energy: -9.197929861970 gnorm: 0.045684198509 xtb: 6.2.2 (9d81278992624c895f80dd42a50cac0aa55982e2)
C        -0.17379312170320   -0.20579851874203    0.13711249355157
C        -1.39716512213609   -0.34333869234180   -0.09525301460189
O         1.09262455344572   -0.21322877062785    0.47425934731712
H        -1.15993214950207    0.79091691316668   -0.21872638517019
H         1.63826483989564   -0.02855093145500   -0.29739244109660
5
 energy: -9.220471535742 gnorm: 0.106052884067 xtb: 6.2.2 (9d81278992624c895f80dd42a50cac0aa55982e2)
C        -0.08361448842376   -0.20452415289476    0.16752597615648
C        -1.28846299573474   -0.25440113714402   -0.16591243502503
O         1.14599529509449   -0.16051576760575    0.54817190112130
H        -1.47240759865330    0.85134488071015   -0.20258258182037
H         1.69848878771731   -0.23190382306561   -0.34720286043237
5
 energy: -9.243182660414 gnorm: 0.152677441215 xtb: 6.2.2 (9d81278992624c895f80dd42a50cac0aa55982e2)
C        -0.00574402903172   -0.23382093121975    0.17781945634003
C        -1.19013843587452   -0.10305183941724   -0.17629989217484
O         1.18977671063683   -0.26150443761876    0.53180085038621
H        -1.75586815221104    0.88619083775343   -0.21639743114538
H         1.76197290648045   -0.28781362949768   -0.31692298340602
5
 energy: -9.260171362800 gnorm: 0.078849252712 xtb: 6.2.2 (9d81278992624c895f80dd42a50cac0aa55982e2)
C        -0.03438323514635   -0.26504061462479    0.15181726067671
C        -1.19078071281748    0.00189763538327   -0.12638281321662
O         1.20774336614314   -0.41504917423270    0.44596187715843
H        -1.78426386482299    0.83815946472355   -0.23899390844637
H         1.80168344664367   -0.15996731124933   -0.23240241617214
5
 energy: -9.260308844192 gnorm: 0.203868134721 xtb: 6.2.2 (9d81278992624c895f80dd42a50cac0aa55982e2)
C        -0.02179129787619   -0.22710397482505    0.12394623451290
C        -1.11134098412595    0.09836654410722   -0.10988684230153
O         1.24881156556705   -0.52293460256899    0.43814620973631
H        -1.98960771028755    0.84668517507555   -0.25866280177351
H         1.87392742672263   -0.19501314178872   -0.19354280017417
5
 energy: -9.269975068827 gnorm: 0.059822332997 xtb: 6.2.2 (9d81278992624c895f80dd42a50cac0aa55982e2)
C        -0.00108077122509   -0.25869365161803    0.14904213906992
C        -1.12230272032161    0.14240106040606   -0.11960418382384
O         1.25463350411367   -0.55286728757642    0.43885857753448
H        -1.98116680443527    0.81630526619746   -0.26601867470207
H         1.84991579186830   -0.14714538740907   -0.20227785807849
5
 energy: -9.271275583295 gnorm: 0.052194981190 xtb: 6.2.2 (9d81278992624c895f80dd42a50cac0aa55982e2)
C        -0.00975552678151   -0.23996600528301    0.13762666282433
C        -1.12773283678209    0.12216506621884   -0.09858339279051
O         1.21252892352717   -0.56959063145071    0.42883671816827
H        -1.87816029483517    0.77775302294732   -0.26912963423076
H         1.80311873487159   -0.09036145243244   -0.19875035397133
5
 energy: -9.274534416713 gnorm: 0.037164633056 xtb: 6.2.2 (9d81278992624c895f80dd42a50cac0aa55982e2)
C         0.00422207637558   -0.23152706032084    0.13910006951007
C        -1.09797300246001    0.17080248828990   -0.09655026431946
O         1.22863854246211   -0.61365815825275    0.41914845824350
H        -1.95712497065202    0.77128637269117   -0.27859012461411
H         1.82223635427435   -0.09690364240748   -0.18310813882000
5
 energy: -9.275628778200 gnorm: 0.029149718367 xtb: 6.2.2 (9d81278992624c895f80dd42a50cac0aa55982e2)
C         0.00838039674202   -0.22227143242773    0.14341211376373
C        -1.09068229242811    0.18387833040458   -0.10098919205628
O         1.23027034190483   -0.60598530514900    0.41240258800982
H        -1.97651799119709    0.75572233593496   -0.27551798353256
H         1.82854854497836   -0.11134392876281   -0.17930752618470
5
 energy: -9.276553029830 gnorm: 0.021707844126 xtb: 6.2.2 (9d81278992624c895f80dd42a50cac0aa55982e2)
C         0.01007427006500   -0.18448892290342    0.16166622149720
C        -1.06485114632664    0.21509070887960   -0.20045542471569
O         1.22317255713437   -0.60120828873626    0.42146889410486
H        -2.00573724534864    0.71673260942739   -0.20967574208951
H         1.83734056447592   -0.14612610666726   -0.17300394879679
5
 energy: -9.277639959771 gnorm: 0.031879988058 xtb: 6.2.2 (9d81278992624c895f80dd42a50cac0aa55982e2)
C         0.00942723969415   -0.14714884547286    0.16094553851958
C        -1.07929548919405    0.24541169597365   -0.13120087698687
O         1.21175678150534   -0.62248307717753    0.37565402960531
H        -1.99566054266861    0.67627541838288   -0.25287704499353
H         1.85377101066318   -0.15205519170611   -0.15252164614446
5
 energy: -9.278353994372 gnorm: 0.010627396189 xtb: 6.2.2 (9d81278992624c895f80dd42a50cac0aa55982e2)
C         0.02432763764096   -0.13393715272672    0.09390372699763
C        -1.08786390552596    0.25197798689783   -0.11191046026574
O         1.20472680405154   -0.60589368516508    0.39497548337773
H        -2.02768983706392    0.66979341903294   -0.23944885545295
H         1.88649830089739   -0.18194056803893   -0.13751989465663
5
 energy: -9.278583199756 gnorm: 0.007626562643 xtb: 6.2.2 (9d81278992624c895f80dd42a50cac0aa55982e2)
C         0.02650356200359   -0.12730510085981    0.12955649313343
C        -1.07936203836521    0.26278099160120   -0.10814937578013
O         1.20793182290115   -0.62616602991869    0.37487624234693
H        -2.04116861523068    0.66441226376373   -0.25742748256847
H         1.88609426869116   -0.17372212458640   -0.13885587713173
5
 energy: -9.278646858302 gnorm: 0.002269796654 xtb: 6.2.2 (9d81278992624c895f80dd42a50cac0aa55982e2)
C         0.02764041894124   -0.12190980640290    0.11834074521237
C        -1.08110991724891    0.26678990943096   -0.10612611143333
O         1.20459811803745   -0.62317534409583    0.37662729119207
H        -2.04106830287708    0.65799807732384   -0.25342944473291
H         1.88993868314731   -0.17970283625603   -0.13541248023816
5
 energy: -9.278657930803 gnorm: 0.001414790572 xtb: 6.2.2 (9d81278992624c895f80dd42a50cac0aa55982e2)
C         0.02845965350391   -0.11882943706765    0.11661416383336
C        -1.08078627078990    0.27064258632940   -0.10359118836420
O         1.20312128343417   -0.62430248156599    0.37511580514620
H        -2.04163517252721    0.65368199944044   -0.25417147626672
H         1.89083950637904   -0.18119266713617   -0.13396730434860
5
 energy: -9.278664299276 gnorm: 0.001591924348 xtb: 6.2.2 (9d81278992624c895f80dd42a50cac0aa55982e2)
C         0.02918788989864   -0.11743051203401    0.11626968104526
C        -1.07962501883998    0.27490365077569   -0.10015901676621
O         1.20218334156736   -0.62623022080977    0.37345298530320
H        -2.04206180704944    0.64995327211142   -0.25632898813743
H         1.89031459442344   -0.18119619004330   -0.13323466144478
5
 energy: -9.278671565304 gnorm: 0.001562694104 xtb: 6.2.2 (9d81278992624c895f80dd42a50cac0aa55982e2)
C         0.02912375189324   -0.11919750674374    0.11623300524424
C        -1.07855321558492    0.27758473544125   -0.09774691505638
O         1.20238975122449   -0.62721364956382    0.37332534727215
H        -2.04189325585767    0.64879962744907   -0.25818638642374
H         1.88893196832488   -0.17997320658272   -0.13362505103623
5
 energy: -9.278689285320 gnorm: 0.001291483911 xtb: 6.2.2 (9d81278992624c895f80dd42a50cac0aa55982e2)
C         0.02751688391802   -0.12705773344341    0.11566678994484
C        -1.07475312760735    0.28660132889279   -0.09303851399114
O         1.20363325297214   -0.62858575566765    0.37456202902371
H        -2.04168333109702    0.64562997725778   -0.26185224257748
H         1.88528532181423   -0.17658781703947   -0.13533806239990
5
 energy: -9.278694465426 gnorm: 0.000922341313 xtb: 6.2.2 (9d81278992624c895f80dd42a50cac0aa55982e2)
C         0.02629464904313   -0.13109090624578    0.11530542190677
C        -1.07364305830251    0.28996446394542   -0.09267379410852
O         1.20436439127375   -0.62781374515757    0.37540362835932
H        -2.04204322141080    0.64491298885685   -0.26213350131063
H         1.88502623939644   -0.17597280139889   -0.13590175484691
5
 energy: -9.278696369777 gnorm: 0.001000184926 xtb: 6.2.2 (9d81278992624c895f80dd42a50cac0aa55982e2)
C         0.02504103505856   -0.13307917458402    0.11566350567487
C        -1.07272691611068    0.29149944095563   -0.09449610641131
O         1.20446046446821   -0.62649844483898    0.37578588101061
H        -2.04248738830687    0.64448572511572   -0.26090552848302
H         1.88571180489080   -0.17640754664833   -0.13604775179111
5
 energy: -9.278696670188 gnorm: 0.000423305601 xtb: 6.2.2 (9d81278992624c895f80dd42a50cac0aa55982e2)
C         0.02517455365979   -0.13281278976752    0.11509163120585
C        -1.07337559861646    0.29139544755327   -0.09414915549569
O         1.20441469014048   -0.62609486244084    0.37556007185199
H        -2.04298878254506    0.64453715065266   -0.26086617700266
H         1.88677413736126   -0.17702494599754   -0.13563637055944
