[Molden Format]
[Title]
[Atoms] AU
C      1     6  0.47572452377481E-01 -0.25097964471955E+00  0.21749191401620E+00
C      2     6 -0.20283834598210E+01  0.55066784882398E+00 -0.17790998292012E+00
O      3     8  0.22760099760349E+01 -0.11831583867809E+01  0.70969973348897E+00
H      4     1 -0.38606842597829E+01  0.12180179329975E+01 -0.49295423343408E+00
H      5     1  0.35654834014656E+01 -0.33454775031105E+00 -0.25632743114430E+00
[GTO]
           1 0
 s           4   1.0000000000000000     
   51.049363095579913      -0.16312063210127389     
   8.7911227406887544      -0.19911024581000730     
  0.70640422258929825       0.31882047753655751     
  0.26922813413411617       0.12706504184240380     
 p           4   1.0000000000000000     
   5.8263656140800002       0.73716451545209605     
   1.5106896018720002       0.68216371614850257     
  0.53256483288000001       0.35783053929253711     
  0.21202323690600003        5.3983030275847881E-002

           2 0
 s           4   1.0000000000000000     
   51.049363095579913      -0.16312063210127389     
   8.7911227406887544      -0.19911024581000730     
  0.70640422258929825       0.31882047753655751     
  0.26922813413411617       0.12706504184240380     
 p           4   1.0000000000000000     
   5.8263656140800002       0.73716451545209605     
   1.5106896018720002       0.68216371614850257     
  0.53256483288000001       0.35783053929253711     
  0.21202323690600003        5.3983030275847881E-002

           3 0
 s           4   1.0000000000000000     
   69.137961906196551      -0.20478756370077797     
   11.906129132707308      -0.24997023136827334     
  0.95670827744340703       0.40025880240639616     
  0.36462520496073686       0.15952206667693555     
 p           4   1.0000000000000000     
   8.2124193257781641        1.1321556799186829     
   2.1293576997098116        1.0476840782254817     
  0.75066448202360914       0.54956508217158984     
  0.29885246543283073        8.2908486592766617E-002

           4 0
 s           3   1.0000000000000000     
   3.3702276975336001       0.27359110588908298     
  0.61389118221497996       0.26460540653860526     
  0.16614291148415999        8.2465947534082318E-002

           5 0
 s           3   1.0000000000000000     
   3.3702276975336001       0.27359110588908298     
  0.61389118221497996       0.26460540653860526     
  0.16614291148415999        8.2465947534082318E-002

[MO]
Sym=     1a
Ene=  -0.71509056771255275     
Spin= Alpha
Occup=     2.00000000
           1 -0.21608248448880227     
           2 -0.16093085783330155     
           3   5.7269369537195934E-002
           4  -2.6494172755117125E-002
           5  -1.2916159609663821E-002
           6  -2.3448600420428664E-002
           7   8.4646208749144924E-003
           8  -3.9496222457366175E-003
           9 -0.75103238564871033     
          10   7.3635825052943332E-002
          11  -7.5386512360534355E-002
          12   5.6469929634821940E-002
          13  -1.2214999784675204E-003
          14 -0.15713539030087270     
Sym=     2a
Ene=  -0.63110573034317019     
Spin= Alpha
Occup=     2.00000000
           1 -0.46152448060624590     
           2   2.4708328268780017E-002
           3   4.2056912613181764E-002
           4  -4.1903273970792999E-002
           5 -0.23587703430155360     
           6 -0.12397028570049870     
           7   5.4992138905128281E-002
           8  -3.0050834128049091E-002
           9  0.16228172229249391     
          10  0.51873910227397946     
          11  -1.3198453549427296E-002
          12  -6.9165777691587077E-002
          13  -2.8865870849391077E-002
          14  0.25867700459896276     
Sym=     3a
Ene=  -0.59563070151899877     
Spin= Alpha
Occup=     2.00000000
           1 -0.20453679412113560     
           2  0.23298853842718376     
           3 -0.20678587246328012     
           4  0.14968294799127807     
           5 -0.41125493504449046     
           6 -0.11618810868797291     
           7   1.5481241666434040E-002
           8   4.3721001645818597E-003
           9  0.12405178951319325     
          10 -0.33982769010782565     
          11 -0.19320464570265958     
          12  0.22696224271404331     
          13  -9.6891997924555287E-002
          14 -0.26270481281555258     
Sym=     4a
Ene=  -0.55202735789918878     
Spin= Alpha
Occup=     2.00000000
           1   8.6190624079013414E-002
           2  0.28654700222235702     
           3   7.4131323185562162E-002
           4 -0.11180779652523459     
           5 -0.27491340389518765     
           6   6.2327576070237263E-002
           7   2.9664354378472098E-002
           8  -3.6458812107525107E-002
           9 -0.38825727855218878     
          10 -0.18008511347104977     
          11  0.51306428673620230     
          12 -0.43450202853296538     
          13 -0.13710773712572955     
          14  0.11035671609570058     
Sym=     5a
Ene=  -0.52343124782801520     
Spin= Alpha
Occup=     2.00000000
           1   1.9436121383737957E-004
           2  -4.9018277423590391E-002
           3 -0.28171645345621543     
           4 -0.31269277980799659     
           5   1.7666603411628780E-004
           6  -1.8284136216377291E-002
           7 -0.10428725799661603     
           8 -0.11583559804463868     
           9   4.7962086953904640E-005
          10  -9.1847393228223426E-002
          11 -0.53056133004710226     
          12 -0.58861205880170286     
          13   2.0947382136843838E-004
          14   6.2627803911225912E-006
Sym=     6a
Ene=  -0.49040722201322123     
Spin= Alpha
Occup=     2.00000000
           1 -0.14644910337411612     
           2  0.20665812344451340     
           3  -3.7726684059788823E-002
           4   1.8145941373591060E-003
           5  0.23554717937958838     
           6 -0.42082731407349816     
           7  0.17938268330291099     
           8  -9.5486776057037967E-002
           9  -3.9759453981580491E-002
          10 -0.17890385820176011     
          11  0.15599587375765578     
          12 -0.11236478116395664     
          13  0.49274830691882754     
          14  -2.7456683418599779E-002
Sym=     7a
Ene=  -0.40743568502213456     
Spin= Alpha
Occup=     2.00000000
           1  -8.5134907577755683E-003
           2  0.20837045096447840     
           3  0.37813893358029266     
           4 -0.37321469247184313     
           5   1.5044124397032522E-002
           6  0.24552446521035728     
           7  0.41382979790886815     
           8 -0.41117553704312965     
           9  0.15760486662527598     
          10  -2.9147525942673922E-002
          11 -0.21159850198139124     
          12  0.19513576088296422     
          13  -1.2445217452863267E-002
          14 -0.18433408363949125     
Sym=     8a
Ene=  -0.38779210965813032     
Spin= Alpha
Occup=     2.00000000
           1  -2.8293145913321495E-004
           2   5.2971056180352263E-002
           3  0.30465047520124450     
           4  0.33828263788791846     
           5   3.8894967978877077E-004
           6   7.6293217590016948E-002
           7  0.43775405966736958     
           8  0.48614838738174720     
           9  -5.9278910767812226E-005
          10  -6.1171205876143435E-002
          11 -0.35313760992658710     
          12 -0.39195021009114439     
          13  -1.5281365943665585E-004
          14   5.0206190900034714E-006
Sym=     9a
Ene=  -0.14266500433026480     
Spin= Alpha
Occup=     0.00000000
           1  -1.6480911612146525E-002
           2 -0.31400607731921359     
           3 -0.53873349958648098     
           4  0.53426345093640137     
           5   1.1573960263331070E-002
           6  0.29236868552266004     
           7  0.54284290340047126     
           8 -0.53460433738007773     
           9 -0.16610735837464863     
          10  -3.7632299520996365E-002
          11   9.2423288311927032E-002
          12  -7.7313173564642554E-002
          13  -1.6314535218917771E-002
          14  0.27128338404262836     
Sym=    10a
Ene=  -0.12435236521139623     
Spin= Alpha
Occup=     0.00000000
           1  -7.7705583434101286E-004
           2   9.8505288767064908E-002
           3  0.56828022158467817     
           4  0.63093606699009130     
           5  -1.8064662187166486E-004
           6  -9.1288677866006376E-002
           7 -0.52614507507387109     
           8 -0.58421422407943480     
           9   2.5932374853698521E-004
          10  -3.9568448565103387E-002
          11 -0.22636426479920577     
          12 -0.25169786898943436     
          13   1.1804508150332901E-004
          14  -1.2054864616594401E-004
Sym=    11a
Ene=    3.9137003125584512E-002
Spin= Alpha
Occup=     0.00000000
           1 -0.72201048479202934     
           2 -0.22620375271579862     
           3   3.2343276694010624E-002
           4   5.2833988703471571E-003
           5  0.66239796961353448     
           6  -2.9773145886083634E-002
           7   3.3669029474799009E-002
           8  -2.5607332661277880E-002
           9  0.60266861407156536     
          10 -0.22066159238120328     
          11  0.40473632334598048     
          12 -0.32999992893072289     
          13 -0.58675687222339001     
          14 -0.49908193539110290     
Sym=    12a
Ene=   0.16523356357348656     
Spin= Alpha
Occup=     0.00000000
           1 -0.30568845447813092     
           2  0.10804877851759226     
           3  0.10340048193549117     
           4 -0.11015828700180613     
           5  0.50826960308358615     
           6 -0.21738764404555769     
           7  -3.2356503105170835E-003
           8   3.6593064671664954E-002
           9 -0.44900783905232600     
          10 -0.63171362300247491     
          11 -0.29794093040059649     
          12  0.36714325813383558     
          13 -0.51409095388983550     
          14  0.98556951168592766     
Sym=    13a
Ene=   0.37228530792043563     
Spin= Alpha
Occup=     0.00000000
           1 -0.63208482801405663     
           2 -0.54044787019673524     
           3  0.25083214115195401     
           4 -0.14224333914870863     
           5 -0.58857561116647517     
           6  0.60127959708129752     
           7 -0.23783359523627828     
           8  0.12085887570178259     
           9  0.28157615324658719     
          10 -0.66055361240696275     
          11  0.12835926716425089     
          12  -1.2434820746888337E-002
          13  0.81599564576729222     
          14  0.30383243738957949     
Sym=    14a
Ene=    1.4886836592311861     
Spin= Alpha
Occup=     0.00000000
           1 -0.75922814493640955     
           2   1.2287109079347855     
           3 -0.48711451896511826     
           4  0.24574512864489981     
           5  0.75732039420024289     
           6   1.2097857308930922     
           7 -0.45819207430516667     
           8  0.22258420511405480     
           9 -0.35926165395742732     
          10  0.34233859236346670     
          11 -0.12137159223004190     
          12   5.6191320465266620E-002
          13  0.52043490317690655     
          14  -7.1489426997850367E-002
