$hessian                                                                        
        1.4011330106  -0.5121076412   0.2475059180  -0.9694833278   0.3688302348
       -0.1803022922  -0.3687374098   0.1285820631  -0.0616993769  -0.0149452866
        0.0032263588  -0.0023892098  -0.0479669864   0.0114689845  -0.0031150391
       -0.5121076412   0.2447735298  -0.1057074014   0.3697591317  -0.1447507682
        0.0696010315   0.1444857662  -0.0947867700   0.0435074199   0.0013471421
       -0.0125434804   0.0001105811  -0.0034843989   0.0073074889  -0.0075116311
        0.2475059180  -0.1057074014   0.0946140119  -0.1811033585   0.0697331418
       -0.0373006967  -0.0759915396   0.0459217335  -0.0510587555  -0.0008030641
       -0.0001389738  -0.0118770807   0.0103920442  -0.0098085001   0.0056225210
       -0.9694833278   0.3697591317  -0.1811033585   1.3349283801  -0.4978653478
        0.2411842626  -0.0281646601   0.0089270594  -0.0038894537  -0.3401065496
        0.1179823825  -0.0546209105   0.0028261574   0.0011967742  -0.0015705399
        0.3688302348  -0.1447507682   0.0697331418  -0.4978653478   0.2082701292
       -0.0966380303   0.0125673614  -0.0089426970   0.0043497299   0.1194577613
       -0.0551009897   0.0229008237  -0.0029900097   0.0005243257  -0.0003456651
       -0.1803022922   0.0696010315  -0.0373006967   0.2411842626  -0.0966380303
        0.0634259824  -0.0071922227   0.0049276344  -0.0051973839  -0.0558855637
        0.0231082922  -0.0210919778   0.0021958160  -0.0009989277   0.0001640760
       -0.3687374098   0.1444857662  -0.0759915396  -0.0281646601   0.0125673614
       -0.0071922227   0.5990898957  -0.0180263976  -0.0752756605   0.0029986491
        0.0005576627   0.0004747719  -0.2051864750  -0.1395843927   0.1579846509
        0.1285820631  -0.0947867700   0.0459217335   0.0089270594  -0.0089426970
        0.0049276344  -0.0180263976   0.2081049940  -0.1729711742   0.0026958553
        0.0103686316  -0.0012986742  -0.1221785802  -0.1147441585   0.1234204805
       -0.0616993769   0.0435074199  -0.0510587555  -0.0038894537   0.0043497299
       -0.0051973839  -0.0752756605  -0.1729711742   0.1806250123  -0.0014211046
       -0.0009991115   0.0104635257   0.1422855957   0.1261131358  -0.1348323986
       -0.0149452866   0.0013471421  -0.0008030641  -0.3401065496   0.1194577613
       -0.0558855637   0.0029986491   0.0026958553  -0.0014211046   0.3511699493
       -0.1234552421   0.0580683209   0.0008832378  -0.0000455167   0.0000414115
        0.0032263588  -0.0125434804  -0.0001389738   0.1179823825  -0.0551009897
        0.0231082922   0.0005576627   0.0103686316  -0.0009991115  -0.1234552421
        0.0574213425  -0.0226253456   0.0016888381  -0.0001455040   0.0006551387
       -0.0023892098   0.0001105811  -0.0118770807  -0.0546209105   0.0229008237
       -0.0210919778   0.0004747719  -0.0012986742   0.0104635257   0.0580683209
       -0.0226253456   0.0222150861  -0.0015329725   0.0009126149   0.0002904466
       -0.0479669864  -0.0034843989   0.0103920442   0.0028261574  -0.0029900097
        0.0021958160  -0.2051864750  -0.1221785802   0.1422855957   0.0008832378
        0.0016888381  -0.0015329725   0.2494440662   0.1269641506  -0.1533404834
        0.0114689845   0.0073074889  -0.0098085001   0.0011967742   0.0005243257
       -0.0009989277  -0.1395843927  -0.1147441585   0.1261131358  -0.0000455167
       -0.0001455040   0.0009126149   0.1269641506   0.1070578480  -0.1162183229
       -0.0031150391  -0.0075116311   0.0056225210  -0.0015705399  -0.0003456651
        0.0001640760   0.1579846509   0.1234204805  -0.1348323986   0.0000414115
        0.0006551387   0.0002904466  -0.1533404834  -0.1162183229   0.1287553549
