$hessian                                                                        
        0.3148417218   0.0208960090  -0.0111099691   0.0239757408  -0.0108254732
       -0.0234155387   0.0175308531  -0.0019173675  -0.0077638298  -0.2053326717
       -0.1157686215  -0.0317562405  -0.1510156439   0.1076154533   0.0740455781
        0.0208960090   0.2980930425   0.1651660320  -0.0067185109  -0.0532338944
       -0.0279708545  -0.0122251104  -0.1036935213  -0.0574397693  -0.1199446234
       -0.0616605420  -0.0221206094   0.1179922357  -0.0795050847  -0.0576347988
       -0.0111099691   0.1651660320   0.1816421718  -0.0245792750  -0.0576832550
       -0.1434385332  -0.0045671466   0.0211132536  -0.0227971929  -0.0626968308
       -0.0463651307   0.0104946589   0.1029532215  -0.0822308998  -0.0259011046
        0.0239757408  -0.0067185109  -0.0245792750   0.1639454369  -0.0128310480
        0.0362881690   0.0258220143   0.0013698558  -0.0129622282  -0.0897074228
       -0.0058235015   0.0638991694  -0.1240357692   0.0240032046  -0.0626458352
       -0.0108254732  -0.0532338944  -0.0576832550  -0.0128310480   0.1092831313
       -0.0833259354   0.0050883997  -0.1039525733   0.0788077189  -0.0082086260
        0.0251710937   0.0309129090   0.0267767475   0.0227322427   0.0312885625
       -0.0234155387  -0.0279708545  -0.1434385332   0.0362881690  -0.0833259354
        0.4620481587  -0.0140973501   0.0491312037  -0.0945613347   0.0755207997
        0.0300516220  -0.1304061610  -0.0742960799   0.0321139642  -0.0936421299
        0.0175308531  -0.0122251104  -0.0045671466   0.0258220143   0.0050883997
       -0.0140973501   0.3109005477  -0.0044065306  -0.0334647186  -0.1706983512
        0.1311113635   0.0226116847  -0.1835550638  -0.1195681221   0.0295175307
       -0.0019173675  -0.1036935213   0.0211132536   0.0013698558  -0.1039525733
        0.0491312037  -0.0044065306   0.4052010745  -0.0604799993   0.1468269637
       -0.1091567487  -0.0236641214  -0.1418729213  -0.0883982313   0.0138996634
       -0.0077638298  -0.0574397693  -0.0227971929  -0.0129622282   0.0788077189
       -0.0945613347  -0.0334647186  -0.0604799993   0.0784398659  -0.0003986656
        0.0041857886   0.0234143487   0.0545894422   0.0349262611   0.0155043130
       -0.2053326717  -0.1199446234  -0.0626968308  -0.0897074228  -0.0082086260
        0.0755207997  -0.1706983512   0.1468269637  -0.0003986656   0.5545626411
       -0.0154990235  -0.0454733542  -0.0888241953  -0.0031746908   0.0330480509
       -0.1157686215  -0.0616605420  -0.0463651307  -0.0058235015   0.0251710937
        0.0300516220   0.1311113635  -0.1091567487   0.0041857886  -0.0154990235
        0.1722269518   0.0211065381   0.0059797829  -0.0265807548  -0.0089788179
       -0.0317562405  -0.0221206094   0.0104946589   0.0638991694   0.0309129090
       -0.1304061610   0.0226116847  -0.0236641214   0.0234143487  -0.0454733542
        0.0211065381   0.0930506477  -0.0092812594  -0.0062347163   0.0034465057
       -0.1510156439   0.1179922357   0.1029532215  -0.1240357692   0.0267767475
       -0.0742960799  -0.1835550638  -0.1418729213   0.0545894422  -0.0888241953
        0.0059797829  -0.0092812594   0.5474306723  -0.0088758449  -0.0739653245
        0.1076154533  -0.0795050847  -0.0822308998   0.0240032046   0.0227322427
        0.0321139642  -0.1195681221  -0.0883982313   0.0349262611  -0.0031746908
       -0.0265807548  -0.0062347163  -0.0088758449   0.1717518282   0.0214253908
        0.0740455781  -0.0576347988  -0.0259011046  -0.0626458352   0.0312885625
       -0.0936421299   0.0295175307   0.0138996634   0.0155043130   0.0330480509
       -0.0089788179   0.0034465057  -0.0739653245   0.0214253908   0.1005924157
