 Entering Gaussian System, Link 0=g16
 Initial command:
 /applis/site/cecic/gaussian16/B.01/nehalem/g16/l1.exe "/bettik/tinaccil/g16/12192450_OH_2/Gau-6377.inp" -scrdir="/bettik/tinaccil/g16/12192450_OH_2/"
 Entering Link 1 = /applis/site/cecic/gaussian16/B.01/nehalem/g16/l1.exe PID=      6379.
  
 Copyright (c) 1988-2017, Gaussian, Inc.  All Rights Reserved.
  
 This is part of the Gaussian(R) 16 program.  It is based on
 the Gaussian(R) 09 system (copyright 2009, Gaussian, Inc.),
 the Gaussian(R) 03 system (copyright 2003, Gaussian, Inc.),
 the Gaussian(R) 98 system (copyright 1998, Gaussian, Inc.),
 the Gaussian(R) 94 system (copyright 1995, Gaussian, Inc.),
 the Gaussian 92(TM) system (copyright 1992, Gaussian, Inc.),
 the Gaussian 90(TM) system (copyright 1990, Gaussian, Inc.),
 the Gaussian 88(TM) system (copyright 1988, Gaussian, Inc.),
 the Gaussian 86(TM) system (copyright 1986, Carnegie Mellon
 University), and the Gaussian 82(TM) system (copyright 1983,
 Carnegie Mellon University). Gaussian is a federally registered
 trademark of Gaussian, Inc.
  
 This software contains proprietary and confidential information,
 including trade secrets, belonging to Gaussian, Inc.
  
 This software is provided under written license and may be
 used, copied, transmitted, or stored only in accord with that
 written license.
  
 The following legend is applicable only to US Government
 contracts under FAR:
  
                    RESTRICTED RIGHTS LEGEND
  
 Use, reproduction and disclosure by the US Government is
 subject to restrictions as set forth in subparagraphs (a)
 and (c) of the Commercial Computer Software - Restricted
 Rights clause in FAR 52.227-19.
  
 Gaussian, Inc.
 340 Quinnipiac St., Bldg. 40, Wallingford CT 06492
  
  
 ---------------------------------------------------------------
 Warning -- This program may not be used in any manner that
 competes with the business of Gaussian, Inc. or will provide
 assistance to any competitor of Gaussian, Inc.  The licensee
 of this program is prohibited from giving any competitor of
 Gaussian, Inc. access to this program.  By using this program,
 the user acknowledges that Gaussian, Inc. is engaged in the
 business of creating and licensing software in the field of
 computational chemistry and represents and warrants to the
 licensee that it is not a competitor of Gaussian, Inc. and that
 it will not use this program in any manner prohibited above.
 ---------------------------------------------------------------
  

 Cite this work as:
 Gaussian 16, Revision B.01,
 M. J. Frisch, G. W. Trucks, H. B. Schlegel, G. E. Scuseria, 
 M. A. Robb, J. R. Cheeseman, G. Scalmani, V. Barone, 
 G. A. Petersson, H. Nakatsuji, X. Li, M. Caricato, A. V. Marenich, 
 J. Bloino, B. G. Janesko, R. Gomperts, B. Mennucci, H. P. Hratchian, 
 J. V. Ortiz, A. F. Izmaylov, J. L. Sonnenberg, D. Williams-Young, 
 F. Ding, F. Lipparini, F. Egidi, J. Goings, B. Peng, A. Petrone, 
 T. Henderson, D. Ranasinghe, V. G. Zakrzewski, J. Gao, N. Rega, 
 G. Zheng, W. Liang, M. Hada, M. Ehara, K. Toyota, R. Fukuda, 
 J. Hasegawa, M. Ishida, T. Nakajima, Y. Honda, O. Kitao, H. Nakai, 
 T. Vreven, K. Throssell, J. A. Montgomery, Jr., J. E. Peralta, 
 F. Ogliaro, M. J. Bearpark, J. J. Heyd, E. N. Brothers, K. N. Kudin, 
 V. N. Staroverov, T. A. Keith, R. Kobayashi, J. Normand, 
 K. Raghavachari, A. P. Rendell, J. C. Burant, S. S. Iyengar, 
 J. Tomasi, M. Cossi, J. M. Millam, M. Klene, C. Adamo, R. Cammi, 
 J. W. Ochterski, R. L. Martin, K. Morokuma, O. Farkas, 
 J. B. Foresman, and D. J. Fox, Gaussian, Inc., Wallingford CT, 2016.
 
 ******************************************
 Gaussian 16:  ES64L-G16RevB.01 20-Dec-2017
                25-Sep-2020 
 ******************************************
 %nosave
 %nproc=8
 Will use up to    8 processors via shared memory.
 %mem=2gb
 %chk=input
 --------------------------------------------------------
 #P M062X/cc-pvtz nosymm opt(noeigentest) optcyc=120 freq
 --------------------------------------------------------
 1/6=120,11=1,18=20,19=15,26=3,38=1/1,3;
 2/9=110,12=2,15=1,17=6,18=5,40=1/2;
 3/5=16,6=1,11=2,25=1,30=1,71=1,74=-55/1,2,3;
 4//1;
 5/5=2,38=5/2;
 6/7=2,8=2,9=2,10=2,28=1/1;
 7/30=1/1,2,3,16;
 1/6=120,11=1,18=20,19=15,26=3/3(2);
 2/9=110,15=1/2;
 99//99;
 2/9=110,15=1/2;
 3/5=16,6=1,11=2,25=1,30=1,71=1,74=-55/1,2,3;
 4/5=5,16=3,69=1/1;
 5/5=2,38=5/2;
 7/30=1/1,2,3,16;
 1/6=120,11=1,18=20,19=15,26=3/3(-5);
 2/9=110,15=1/2;
 6/7=2,8=2,9=2,10=2,19=2,28=1/1;
 99/9=1/99;
 Leave Link    1 at Fri Sep 25 11:23:17 2020, MaxMem=   268435456 cpu:               0.8 elap:               0.2
 (Enter /applis/site/cecic/gaussian16/B.01/nehalem/g16/l101.exe)
 -----
 Title
 -----
 Symbolic Z-matrix:
 Charge =  0 Multiplicity = 2
 O
 H                    1    B1
       Variables:
  B1                    0.97                     
 
 ITRead=  0  0
 MicOpt= -1 -1
 NAtoms=      2 NQM=        2 NQMF=       0 NMMI=      0 NMMIF=      0
                NMic=       0 NMicF=      0.
                    Isotopes and Nuclear Properties:
 (Nuclear quadrupole moments (NQMom) in fm**2, nuclear magnetic moments (NMagM)
  in nuclear magnetons)

  Atom         1           2
 IAtWgt=          16           1
 AtmWgt=  15.9949146   1.0078250
 NucSpn=           0           1
 AtZEff=  -0.0000000  -0.0000000
 NQMom=    0.0000000   0.0000000
 NMagM=    0.0000000   2.7928460
 AtZNuc=   8.0000000   1.0000000
 Leave Link  101 at Fri Sep 25 11:23:17 2020, MaxMem=   268435456 cpu:               1.9 elap:               0.3
 (Enter /applis/site/cecic/gaussian16/B.01/nehalem/g16/l103.exe)

 GradGradGradGradGradGradGradGradGradGradGradGradGradGradGradGradGradGrad
 Berny optimization.
 Initialization pass.
                           ----------------------------
                           !    Initial Parameters    !
                           ! (Angstroms and Degrees)  !
 --------------------------                            --------------------------
 ! Name  Definition              Value          Derivative Info.                !
 --------------------------------------------------------------------------------
 ! R1    R(1,2)                  0.97           estimate D2E/DX2                !
 --------------------------------------------------------------------------------
 Trust Radius=3.00D-01 FncErr=1.00D-07 GrdErr=1.00D-06 EigMax=2.50D+02 EigMin=1.00D-04
 Number of steps in this run=    100 maximum allowed number of steps=    100.
 GradGradGradGradGradGradGradGradGradGradGradGradGradGradGradGradGradGrad

 Leave Link  103 at Fri Sep 25 11:23:17 2020, MaxMem=   268435456 cpu:               0.3 elap:               0.1
 (Enter /applis/site/cecic/gaussian16/B.01/nehalem/g16/l202.exe)
                          Input orientation:                          
 ---------------------------------------------------------------------
 Center     Atomic      Atomic             Coordinates (Angstroms)
 Number     Number       Type             X           Y           Z
 ---------------------------------------------------------------------
      1          8           0        0.000000    0.000000    0.000000
      2          1           0        0.000000    0.000000    0.970000
 ---------------------------------------------------------------------
 Symmetry turned off by external request.
 Stoichiometry    HO(2)
 Framework group  C*V[C*(HO)]
 Deg. of freedom     1
 Full point group                 C*V     NOp   4
 Rotational constants (GHZ):           0.0000000         566.5334626         566.5334626
 Leave Link  202 at Fri Sep 25 11:23:18 2020, MaxMem=   268435456 cpu:               0.7 elap:               0.2
 (Enter /applis/site/cecic/gaussian16/B.01/nehalem/g16/l301.exe)
 Standard basis: CC-pVTZ (5D, 7F)
 Ernie: Thresh=  0.10000D-02 Tol=  0.10000D-05 Strict=F.
 Ernie:  3 primitive shells out of 34 were deleted.
    44 basis functions,    69 primitive gaussians,    50 cartesian basis functions
     5 alpha electrons        4 beta electrons
       nuclear repulsion energy         4.3643481313 Hartrees.
 IExCor= 4336 DFT=T Ex+Corr=M062X ExCW=0 ScaHFX=  0.540000
 ScaDFX=  1.000000  1.000000  1.000000  1.000000 ScalE2=  1.000000  1.000000
 IRadAn=      5 IRanWt=     -1 IRanGd=            0 ICorTp=0 IEmpDi=  4
 NAtoms=    2 NActive=    2 NUniq=    2 SFac= 1.00D+00 NAtFMM=   60 NAOKFM=F Big=F
 Integral buffers will be    131072 words long.
 Raffenetti 2 integral format.
 Two-electron integral symmetry is turned off.
 Leave Link  301 at Fri Sep 25 11:23:18 2020, MaxMem=   268435456 cpu:               0.8 elap:               0.2
 (Enter /applis/site/cecic/gaussian16/B.01/nehalem/g16/l302.exe)
 NPDir=0 NMtPBC=     1 NCelOv=     1 NCel=       1 NClECP=     1 NCelD=      1
         NCelK=      1 NCelE2=     1 NClLst=     1 CellRange=     0.0.
 One-electron integrals computed using PRISM.
 NBasis=    44 RedAO= T EigKep=  4.08D-03  NBF=    44
 NBsUse=    44 1.00D-06 EigRej= -1.00D+00 NBFU=    44
 Precomputing XC quadrature grid using
 IXCGrd= 4 IRadAn=           5 IRanWt=          -1 IRanGd=           0 AccXCQ= 0.00D+00.
 Generated NRdTot=       0 NPtTot=           0 NUsed=           0 NTot=          32
 NSgBfM=    50    50    50    50    50 MxSgAt=     2 MxSgA2=     2.
 Leave Link  302 at Fri Sep 25 11:23:18 2020, MaxMem=   268435456 cpu:               2.6 elap:               0.5
 (Enter /applis/site/cecic/gaussian16/B.01/nehalem/g16/l303.exe)
 DipDrv:  MaxL=1.
 Leave Link  303 at Fri Sep 25 11:23:19 2020, MaxMem=   268435456 cpu:               1.7 elap:               0.4
 (Enter /applis/site/cecic/gaussian16/B.01/nehalem/g16/l401.exe)
 ExpMin= 1.03D-01 ExpMax= 1.53D+04 ExpMxC= 5.22D+02 IAcc=3 IRadAn=         5 AccDes= 0.00D+00
 Harris functional with IExCor= 1009 and IRadAn=       5 diagonalized for initial guess.
 HarFok:  IExCor= 1009 AccDes= 0.00D+00 IRadAn=         5 IDoV= 1 UseB2=F ITyADJ=14
 ICtDFT=  3500011 ScaDFX=  1.000000  1.000000  1.000000  1.000000
 FoFCou: FMM=F IPFlag=           0 FMFlag=      100000 FMFlg1=           0
         NFxFlg=           0 DoJE=T BraDBF=F KetDBF=T FulRan=T
         wScrn=  0.000000 ICntrl=       500 IOpCl=  0 I1Cent=   200000004 NGrid=           0
         NMat0=    1 NMatS0=      1 NMatT0=    0 NMatD0=    1 NMtDS0=    0 NMtDT0=    0
 Symmetry not used in FoFCou.
 Harris En= -75.6569015292388    
 JPrj=0 DoOrth=F DoCkMO=F.
 Initial guess <Sx>= 0.0000 <Sy>= 0.0000 <Sz>= 0.5000 <S**2>= 0.7500 S= 0.5000
 Leave Link  401 at Fri Sep 25 11:23:19 2020, MaxMem=   268435456 cpu:               3.4 elap:               0.6
 (Enter /applis/site/cecic/gaussian16/B.01/nehalem/g16/l502.exe)
 Keep R1 and R2 ints in memory in canonical form, NReq=7968554.
 FoFCou: FMM=F IPFlag=           0 FMFlag=           0 FMFlg1=           0
         NFxFlg=           0 DoJE=F BraDBF=F KetDBF=F FulRan=T
         wScrn=  0.000000 ICntrl=       600 IOpCl=  0 I1Cent=           0 NGrid=           0
         NMat0=    1 NMatS0=    990 NMatT0=    0 NMatD0=    1 NMtDS0=    0 NMtDT0=    0
 Symmetry not used in FoFCou.
 Two-electron integral symmetry not used.
 UHF open shell SCF:
 Using DIIS extrapolation, IDIIS=  1040.
 NGot=   268435456 LenX=   267448500 LenY=   267445559
 Requested convergence on RMS density matrix=1.00D-08 within 128 cycles.
 Requested convergence on MAX density matrix=1.00D-06.
 Requested convergence on             energy=1.00D-06.
 No special actions if energy rises.
 Integral accuracy reduced to 1.0D-05 until final iterations.

 Cycle   1  Pass 0  IDiag  1:
 E= -75.7146972948428    
 DIIS: error= 2.88D-02 at cycle   1 NSaved=   1.
 NSaved= 1 IEnMin= 1 EnMin= -75.7146972948428     IErMin= 1 ErrMin= 2.88D-02
 ErrMax= 2.88D-02  0.00D+00 EMaxC= 1.00D-01 BMatC= 1.11D-01 BMatP= 1.11D-01
 IDIUse=3 WtCom= 7.12D-01 WtEn= 2.88D-01
 Coeff-Com:  0.100D+01
 Coeff-En:   0.100D+01
 Coeff:      0.100D+01
 Gap=     0.514 Goal=   None    Shift=    0.000
 Gap=     0.331 Goal=   None    Shift=    0.000
 GapD=    0.331 DampG=1.000 DampE=0.500 DampFc=0.5000 IDamp=-1.
 Damping current iteration by 5.00D-01
 RMSDP=3.02D-03 MaxDP=5.65D-02              OVMax= 7.92D-02

 Cycle   2  Pass 0  IDiag  1:
 E= -75.7225946154869     Delta-E=       -0.007897320644 Rises=F Damp=T
 DIIS: error= 8.79D-03 at cycle   2 NSaved=   2.
 NSaved= 2 IEnMin= 2 EnMin= -75.7225946154869     IErMin= 2 ErrMin= 8.79D-03
 ErrMax= 8.79D-03  0.00D+00 EMaxC= 1.00D-01 BMatC= 1.50D-02 BMatP= 1.11D-01
 IDIUse=3 WtCom= 9.12D-01 WtEn= 8.79D-02
 Coeff-Com: -0.176D+00 0.118D+01
 Coeff-En:   0.000D+00 0.100D+01
 Coeff:     -0.160D+00 0.116D+01
 Gap=     0.507 Goal=   None    Shift=    0.000
 Gap=     0.311 Goal=   None    Shift=    0.000
 RMSDP=6.77D-04 MaxDP=1.03D-02 DE=-7.90D-03 OVMax= 3.35D-02

 Cycle   3  Pass 0  IDiag  1:
 E= -75.7302676879505     Delta-E=       -0.007673072464 Rises=F Damp=F
 DIIS: error= 3.23D-03 at cycle   3 NSaved=   3.
 NSaved= 3 IEnMin= 3 EnMin= -75.7302676879505     IErMin= 3 ErrMin= 3.23D-03
 ErrMax= 3.23D-03  0.00D+00 EMaxC= 1.00D-01 BMatC= 9.73D-04 BMatP= 1.50D-02
 IDIUse=3 WtCom= 9.68D-01 WtEn= 3.23D-02
 Coeff-Com: -0.104D+00 0.189D+00 0.915D+00
 Coeff-En:   0.000D+00 0.000D+00 0.100D+01
 Coeff:     -0.101D+00 0.183D+00 0.918D+00
 Gap=     0.504 Goal=   None    Shift=    0.000
 Gap=     0.311 Goal=   None    Shift=    0.000
 RMSDP=1.74D-04 MaxDP=3.59D-03 DE=-7.67D-03 OVMax= 6.37D-03

 Cycle   4  Pass 0  IDiag  1:
 E= -75.7304538589013     Delta-E=       -0.000186170951 Rises=F Damp=F
 DIIS: error= 4.58D-04 at cycle   4 NSaved=   4.
 NSaved= 4 IEnMin= 4 EnMin= -75.7304538589013     IErMin= 4 ErrMin= 4.58D-04
 ErrMax= 4.58D-04  0.00D+00 EMaxC= 1.00D-01 BMatC= 2.23D-05 BMatP= 9.73D-04
 IDIUse=3 WtCom= 9.95D-01 WtEn= 4.58D-03
 Coeff-Com:  0.191D-01-0.459D-01-0.150D+00 0.118D+01
 Coeff-En:   0.000D+00 0.000D+00 0.000D+00 0.100D+01
 Coeff:      0.190D-01-0.457D-01-0.150D+00 0.118D+01
 Gap=     0.504 Goal=   None    Shift=    0.000
 Gap=     0.310 Goal=   None    Shift=    0.000
 RMSDP=6.47D-05 MaxDP=1.06D-03 DE=-1.86D-04 OVMax= 1.94D-03

 Cycle   5  Pass 0  IDiag  1:
 E= -75.7304653777776     Delta-E=       -0.000011518876 Rises=F Damp=F
 DIIS: error= 2.06D-04 at cycle   5 NSaved=   5.
 NSaved= 5 IEnMin= 5 EnMin= -75.7304653777776     IErMin= 5 ErrMin= 2.06D-04
 ErrMax= 2.06D-04  0.00D+00 EMaxC= 1.00D-01 BMatC= 2.29D-06 BMatP= 2.23D-05
 IDIUse=3 WtCom= 9.98D-01 WtEn= 2.06D-03
 Coeff-Com:  0.918D-02-0.161D-01-0.791D-01 0.229D-01 0.106D+01
 Coeff-En:   0.000D+00 0.000D+00 0.000D+00 0.000D+00 0.100D+01
 Coeff:      0.916D-02-0.161D-01-0.790D-01 0.228D-01 0.106D+01
 Gap=     0.504 Goal=   None    Shift=    0.000
 Gap=     0.310 Goal=   None    Shift=    0.000
 RMSDP=2.40D-05 MaxDP=3.62D-04 DE=-1.15D-05 OVMax= 6.79D-04

 Cycle   6  Pass 0  IDiag  1:
 E= -75.7304666628873     Delta-E=       -0.000001285110 Rises=F Damp=F
 DIIS: error= 5.80D-05 at cycle   6 NSaved=   6.
 NSaved= 6 IEnMin= 6 EnMin= -75.7304666628873     IErMin= 6 ErrMin= 5.80D-05
 ErrMax= 5.80D-05  0.00D+00 EMaxC= 1.00D-01 BMatC= 1.59D-07 BMatP= 2.29D-06
 IDIUse=1 WtCom= 1.00D+00 WtEn= 0.00D+00
 Coeff-Com: -0.380D-02 0.746D-02 0.341D-01-0.838D-01-0.345D+00 0.139D+01
 Coeff:     -0.380D-02 0.746D-02 0.341D-01-0.838D-01-0.345D+00 0.139D+01
 Gap=     0.504 Goal=   None    Shift=    0.000
 Gap=     0.310 Goal=   None    Shift=    0.000
 RMSDP=9.23D-06 MaxDP=1.53D-04 DE=-1.29D-06 OVMax= 3.03D-04

 Initial convergence to 1.0D-05 achieved.  Increase integral accuracy.
 Cycle   7  Pass 1  IDiag  1:
 E= -75.7304843294281     Delta-E=       -0.000017666541 Rises=F Damp=F
 DIIS: error= 5.77D-05 at cycle   1 NSaved=   1.
 NSaved= 1 IEnMin= 1 EnMin= -75.7304843294281     IErMin= 1 ErrMin= 5.77D-05
 ErrMax= 5.77D-05  0.00D+00 EMaxC= 1.00D-01 BMatC= 2.39D-07 BMatP= 2.39D-07
 IDIUse=1 WtCom= 1.00D+00 WtEn= 0.00D+00
 Coeff-Com:  0.100D+01
 Coeff:      0.100D+01
 Gap=     0.504 Goal=   None    Shift=    0.000
 Gap=     0.310 Goal=   None    Shift=    0.000
 RMSDP=9.23D-06 MaxDP=1.53D-04 DE=-1.77D-05 OVMax= 7.43D-05

 Cycle   8  Pass 1  IDiag  1:
 E= -75.7304843596966     Delta-E=       -0.000000030268 Rises=F Damp=F
 DIIS: error= 6.61D-06 at cycle   2 NSaved=   2.
 NSaved= 2 IEnMin= 2 EnMin= -75.7304843596966     IErMin= 2 ErrMin= 6.61D-06
 ErrMax= 6.61D-06  0.00D+00 EMaxC= 1.00D-01 BMatC= 2.84D-09 BMatP= 2.39D-07
 IDIUse=1 WtCom= 1.00D+00 WtEn= 0.00D+00
 Coeff-Com: -0.522D-01 0.105D+01
 Coeff:     -0.522D-01 0.105D+01
 Gap=     0.504 Goal=   None    Shift=    0.000
 Gap=     0.310 Goal=   None    Shift=    0.000
 RMSDP=5.48D-07 MaxDP=8.52D-06 DE=-3.03D-08 OVMax= 2.11D-05

 Cycle   9  Pass 1  IDiag  1:
 E= -75.7304843608770     Delta-E=       -0.000000001180 Rises=F Damp=F
 DIIS: error= 4.22D-06 at cycle   3 NSaved=   3.
 NSaved= 3 IEnMin= 3 EnMin= -75.7304843608770     IErMin= 3 ErrMin= 4.22D-06
 ErrMax= 4.22D-06  0.00D+00 EMaxC= 1.00D-01 BMatC= 8.90D-10 BMatP= 2.84D-09
 IDIUse=1 WtCom= 1.00D+00 WtEn= 0.00D+00
 Coeff-Com: -0.224D-01 0.315D+00 0.707D+00
 Coeff:     -0.224D-01 0.315D+00 0.707D+00
 Gap=     0.504 Goal=   None    Shift=    0.000
 Gap=     0.310 Goal=   None    Shift=    0.000
 RMSDP=2.27D-07 MaxDP=3.63D-06 DE=-1.18D-09 OVMax= 1.00D-05

 Cycle  10  Pass 1  IDiag  1:
 E= -75.7304843611253     Delta-E=       -0.000000000248 Rises=F Damp=F
 DIIS: error= 1.79D-06 at cycle   4 NSaved=   4.
 NSaved= 4 IEnMin= 4 EnMin= -75.7304843611253     IErMin= 4 ErrMin= 1.79D-06
 ErrMax= 1.79D-06  0.00D+00 EMaxC= 1.00D-01 BMatC= 1.75D-10 BMatP= 8.90D-10
 IDIUse=1 WtCom= 1.00D+00 WtEn= 0.00D+00
 Coeff-Com:  0.103D-01-0.240D+00 0.121D+00 0.111D+01
 Coeff:      0.103D-01-0.240D+00 0.121D+00 0.111D+01
 Gap=     0.504 Goal=   None    Shift=    0.000
 Gap=     0.310 Goal=   None    Shift=    0.000
 RMSDP=2.25D-07 MaxDP=3.12D-06 DE=-2.48D-10 OVMax= 1.10D-05

 Cycle  11  Pass 1  IDiag  1:
 E= -75.7304843612686     Delta-E=       -0.000000000143 Rises=F Damp=F
 DIIS: error= 7.86D-07 at cycle   5 NSaved=   5.
 NSaved= 5 IEnMin= 5 EnMin= -75.7304843612686     IErMin= 5 ErrMin= 7.86D-07
 ErrMax= 7.86D-07  0.00D+00 EMaxC= 1.00D-01 BMatC= 2.57D-11 BMatP= 1.75D-10
 IDIUse=1 WtCom= 1.00D+00 WtEn= 0.00D+00
 Coeff-Com:  0.587D-03 0.204D-01-0.670D-01-0.238D+00 0.128D+01
 Coeff:      0.587D-03 0.204D-01-0.670D-01-0.238D+00 0.128D+01
 Gap=     0.504 Goal=   None    Shift=    0.000
 Gap=     0.310 Goal=   None    Shift=    0.000
 RMSDP=1.41D-07 MaxDP=1.89D-06 DE=-1.43D-10 OVMax= 1.16D-05

 Cycle  12  Pass 1  IDiag  1:
 E= -75.7304843613373     Delta-E=       -0.000000000069 Rises=F Damp=F
 DIIS: error= 7.91D-07 at cycle   6 NSaved=   6.
 NSaved= 6 IEnMin= 6 EnMin= -75.7304843613373     IErMin= 5 ErrMin= 7.86D-07
 ErrMax= 7.91D-07  0.00D+00 EMaxC= 1.00D-01 BMatC= 2.00D-11 BMatP= 2.57D-11
 IDIUse=1 WtCom= 1.00D+00 WtEn= 0.00D+00
 Coeff-Com:  0.767D-03-0.673D-02 0.138D-01 0.570D-01-0.373D+00 0.131D+01
 Coeff:      0.767D-03-0.673D-02 0.138D-01 0.570D-01-0.373D+00 0.131D+01
 Gap=     0.504 Goal=   None    Shift=    0.000
 Gap=     0.310 Goal=   None    Shift=    0.000
 RMSDP=1.25D-07 MaxDP=1.83D-06 DE=-6.87D-11 OVMax= 1.13D-05

 Cycle  13  Pass 1  IDiag  1:
 E= -75.7304843613997     Delta-E=       -0.000000000062 Rises=F Damp=F
 DIIS: error= 7.92D-07 at cycle   7 NSaved=   7.
 NSaved= 7 IEnMin= 7 EnMin= -75.7304843613997     IErMin= 5 ErrMin= 7.86D-07
 ErrMax= 7.92D-07  0.00D+00 EMaxC= 1.00D-01 BMatC= 1.98D-11 BMatP= 2.00D-11
 IDIUse=1 WtCom= 1.00D+00 WtEn= 0.00D+00
 Coeff-Com:  0.131D-02-0.162D-01 0.779D-02 0.647D-01-0.100D+00-0.295D+00
 Coeff-Com:  0.134D+01
 Coeff:      0.131D-02-0.162D-01 0.779D-02 0.647D-01-0.100D+00-0.295D+00
 Coeff:      0.134D+01
 Gap=     0.504 Goal=   None    Shift=    0.000
 Gap=     0.310 Goal=   None    Shift=    0.000
 RMSDP=1.35D-07 MaxDP=1.98D-06 DE=-6.24D-11 OVMax= 1.22D-05

 Cycle  14  Pass 1  IDiag  1:
 E= -75.7304843614673     Delta-E=       -0.000000000068 Rises=F Damp=F
 DIIS: error= 7.92D-07 at cycle   8 NSaved=   8.
 NSaved= 8 IEnMin= 8 EnMin= -75.7304843614673     IErMin= 5 ErrMin= 7.86D-07
 ErrMax= 7.92D-07  0.00D+00 EMaxC= 1.00D-01 BMatC= 1.98D-11 BMatP= 1.98D-11
 IDIUse=1 WtCom= 1.00D+00 WtEn= 0.00D+00
 Coeff-Com:  0.131D-02-0.179D-01 0.130D-01 0.848D-01-0.213D+00-0.169D+00
 Coeff-Com:  0.242D+01-0.112D+01
 Coeff:      0.131D-02-0.179D-01 0.130D-01 0.848D-01-0.213D+00-0.169D+00
 Coeff:      0.242D+01-0.112D+01
 Gap=     0.504 Goal=   None    Shift=    0.000
 Gap=     0.310 Goal=   None    Shift=    0.000
 RMSDP=1.47D-07 MaxDP=2.16D-06 DE=-6.76D-11 OVMax= 1.34D-05

 Cycle  15  Pass 1  IDiag  1:
 E= -75.7304843613936     Delta-E=        0.000000000074 Rises=F Damp=F
 DIIS: error= 7.92D-07 at cycle   9 NSaved=   9.
 NSaved= 9 IEnMin= 8 EnMin= -75.7304843614673     IErMin= 5 ErrMin= 7.86D-07
 ErrMax= 7.92D-07  0.00D+00 EMaxC= 1.00D-01 BMatC= 1.98D-11 BMatP= 1.98D-11
 IDIUse=1 WtCom= 1.00D+00 WtEn= 0.00D+00
 Large coefficients: NSaved=  9 BigCof=   13.65 CofMax=   10.00 Det=-1.52D-16
 Inversion failed.  Reducing to  8 matrices.
 Coeff-Com: -0.784D-04 0.932D-02 0.208D-01-0.187D+00 0.257D+00 0.154D+01
 Coeff-Com: -0.381D+01 0.317D+01
 Coeff:     -0.784D-04 0.932D-02 0.208D-01-0.187D+00 0.257D+00 0.154D+01
 Coeff:     -0.381D+01 0.317D+01
 Gap=     0.504 Goal=   None    Shift=    0.000
 Gap=     0.310 Goal=   None    Shift=    0.000
 RMSDP=4.46D-07 MaxDP=6.53D-06 DE= 7.37D-11 OVMax= 4.04D-05

 Cycle  16  Pass 1  IDiag  1:
 E= -75.7304843611707     Delta-E=        0.000000000223 Rises=F Damp=F
 DIIS: error= 7.92D-07 at cycle  10 NSaved=   9.
 NSaved= 9 IEnMin= 7 EnMin= -75.7304843614673     IErMin= 4 ErrMin= 7.86D-07
 ErrMax= 7.92D-07  0.00D+00 EMaxC= 1.00D-01 BMatC= 1.98D-11 BMatP= 1.98D-11
 IDIUse=1 WtCom= 1.00D+00 WtEn= 0.00D+00
 Large coefficients: NSaved=  9 BigCof=  204.32 CofMax=   10.00 Det=-1.21D-17
 Inversion failed.  Reducing to  8 matrices.
 Large coefficients: NSaved=  8 BigCof=   23.81 CofMax=   10.00 Det=-5.36D-17
 Inversion failed.  Reducing to  7 matrices.
 Large coefficients: NSaved=  7 BigCof=   14.19 CofMax=   10.00 Det=-7.00D-17
 Inversion failed.  Reducing to  6 matrices.
 Coeff-Com: -0.873D-02-0.829D-01-0.364D+00-0.475D+01 0.203D+01 0.418D+01
 Coeff:     -0.873D-02-0.829D-01-0.364D+00-0.475D+01 0.203D+01 0.418D+01
 Gap=     0.504 Goal=   None    Shift=    0.000
 Gap=     0.310 Goal=   None    Shift=    0.000
 RMSDP=2.02D-06 MaxDP=2.96D-05 DE= 2.23D-10 OVMax= 1.83D-04

 Cycle  17  Pass 1  IDiag  1:
 E= -75.7304843601618     Delta-E=        0.000000001009 Rises=F Damp=F
 DIIS: error= 7.91D-07 at cycle  11 NSaved=   7.
 NSaved= 7 IEnMin= 4 EnMin= -75.7304843614673     IErMin= 1 ErrMin= 7.86D-07
 ErrMax= 7.91D-07  0.00D+00 EMaxC= 1.00D-01 BMatC= 1.98D-11 BMatP= 1.98D-11
 IDIUse=1 WtCom= 1.00D+00 WtEn= 0.00D+00
 Large coefficients: NSaved=  7 BigCof=   85.72 CofMax=   10.00 Det=-5.87D-17
 Inversion failed.  Reducing to  6 matrices.
 Large coefficients: NSaved=  6 BigCof=   72.89 CofMax=   10.00 Det=-6.92D-17
 Inversion failed.  Reducing to  5 matrices.
 Large coefficients: NSaved=  5 BigCof=   32.80 CofMax=   10.00 Det=-1.56D-16
 Inversion failed.  Reducing to  4 matrices.
 Coeff-Com: -0.183D+01-0.592D+01 0.291D+01 0.583D+01
 Coeff:     -0.183D+01-0.592D+01 0.291D+01 0.583D+01
 Gap=     0.504 Goal=   None    Shift=    0.000
 Gap=     0.310 Goal=   None    Shift=    0.000
 RMSDP=1.40D-05 MaxDP=2.05D-04 DE= 1.01D-09 OVMax= 1.27D-03

 Cycle  18  Pass 1  IDiag  1:
 E= -75.7304843531888     Delta-E=        0.000000006973 Rises=F Damp=F
 DIIS: error= 7.85D-07 at cycle  12 NSaved=   5.
 NSaved= 5 IEnMin= 2 EnMin= -75.7304843614673     IErMin= 5 ErrMin= 7.85D-07
 ErrMax= 7.85D-07  0.00D+00 EMaxC= 1.00D-01 BMatC= 1.98D-11 BMatP= 1.98D-11
 IDIUse=1 WtCom= 1.00D+00 WtEn= 0.00D+00
 Coeff-Com: -0.174D+01-0.525D+01 0.257D+01 0.529D+01 0.121D+00
 Coeff:     -0.174D+01-0.525D+01 0.257D+01 0.529D+01 0.121D+00
 Gap=     0.504 Goal=   None    Shift=    0.000
 Gap=     0.310 Goal=   None    Shift=    0.000
 RMSDP=4.13D-07 MaxDP=6.03D-06 DE= 6.97D-09 OVMax= 3.74D-05

 Cycle  19  Pass 1  IDiag  1:
 E= -75.7304843529842     Delta-E=        0.000000000205 Rises=F Damp=F
 DIIS: error= 7.85D-07 at cycle  13 NSaved=   6.
 NSaved= 6 IEnMin= 2 EnMin= -75.7304843614673     IErMin= 6 ErrMin= 7.85D-07
 ErrMax= 7.85D-07  0.00D+00 EMaxC= 1.00D-01 BMatC= 1.98D-11 BMatP= 1.98D-11
 IDIUse=1 WtCom= 1.00D+00 WtEn= 0.00D+00
 Large coefficients: NSaved=  6 BigCof=  307.06 CofMax=   10.00 Det=-5.20D-17
 Inversion failed.  Reducing to  5 matrices.
 Large coefficients: NSaved=  5 BigCof=  225.76 CofMax=   10.00 Det=-6.63D-17
 Inversion failed.  Reducing to  4 matrices.
 Large coefficients: NSaved=  4 BigCof=  106.20 CofMax=   10.00 Det=-1.49D-16
 Inversion failed.  Reducing to  3 matrices.
 Large coefficients: NSaved=  3 BigCof=  102.61 CofMax=   10.00 Det=-1.54D-16
 Inversion failed.  Reducing to  2 matrices.
 Large coefficients: NSaved=  2 BigCof=   19.37 CofMax=   10.00 Det=-1.21D-15
 Coeff-Com: -0.184D+02 0.194D+02
 Coeff:     -0.184D+02 0.194D+02
 Gap=     0.504 Goal=   None    Shift=    0.000
 Gap=     0.310 Goal=   None    Shift=    0.000
 RMSDP=7.49D-06 MaxDP=1.09D-04 DE= 2.05D-10 OVMax= 6.79D-04

 Cycle  20  Pass 1  IDiag  1:
 E= -75.7304843492788     Delta-E=        0.000000003705 Rises=F Damp=F
 DIIS: error= 7.81D-07 at cycle  14 NSaved=   3.
 NSaved= 3 IEnMin= 1 EnMin= -75.7304843531888     IErMin= 3 ErrMin= 7.81D-07
 ErrMax= 7.81D-07  0.00D+00 EMaxC= 1.00D-01 BMatC= 1.94D-11 BMatP= 1.98D-11
 IDIUse=1 WtCom= 1.00D+00 WtEn= 0.00D+00
 Coeff-Com: -0.819D+01 0.816D+01 0.103D+01
 Coeff:     -0.819D+01 0.816D+01 0.103D+01
 Gap=     0.504 Goal=   None    Shift=    0.000
 Gap=     0.310 Goal=   None    Shift=    0.000
 RMSDP=3.54D-06 MaxDP=5.17D-05 DE= 3.71D-09 OVMax= 3.21D-04

 Cycle  21  Pass 1  IDiag  1:
 E= -75.7304843475314     Delta-E=        0.000000001747 Rises=F Damp=F
 DIIS: error= 7.80D-07 at cycle  15 NSaved=   4.
 NSaved= 4 IEnMin= 1 EnMin= -75.7304843531888     IErMin= 4 ErrMin= 7.80D-07
 ErrMax= 7.80D-07  0.00D+00 EMaxC= 1.00D-01 BMatC= 1.92D-11 BMatP= 1.94D-11
 IDIUse=1 WtCom= 1.00D+00 WtEn= 0.00D+00
 Large coefficients: NSaved=  4 BigCof=   49.56 CofMax=   10.00 Det=-8.91D-17
 Inversion failed.  Reducing to  3 matrices.
 Coeff-Com: -0.769D+00-0.219D+00 0.199D+01
 Coeff:     -0.769D+00-0.219D+00 0.199D+01
 Gap=     0.504 Goal=   None    Shift=    0.000
 Gap=     0.310 Goal=   None    Shift=    0.000
 RMSDP=9.49D-06 MaxDP=1.38D-04 DE= 1.75D-09 OVMax= 8.60D-04

 Cycle  22  Pass 1  IDiag  1:
 E= -75.7304843428695     Delta-E=        0.000000004662 Rises=F Damp=F
 DIIS: error= 7.76D-07 at cycle  16 NSaved=   4.
 NSaved= 4 IEnMin= 1 EnMin= -75.7304843531888     IErMin= 4 ErrMin= 7.76D-07
 ErrMax= 7.76D-07  0.00D+00 EMaxC= 1.00D-01 BMatC= 1.93D-11 BMatP= 1.92D-11
 IDIUse=1 WtCom= 1.00D+00 WtEn= 0.00D+00
 Large coefficients: NSaved=  4 BigCof=   10.16 CofMax=   10.00 Det=-1.20D-14
 Inversion failed.  Reducing to  3 matrices.
 Coeff-Com: -0.197D+01 0.113D+01 0.183D+01
 Coeff:     -0.197D+01 0.113D+01 0.183D+01
 Gap=     0.504 Goal=   None    Shift=    0.000
 Gap=     0.310 Goal=   None    Shift=    0.000
 RMSDP=3.03D-05 MaxDP=4.41D-04 DE= 4.66D-09 OVMax= 2.75D-03

 Cycle  23  Pass 1  IDiag  1:
 E= -75.7304843281517     Delta-E=        0.000000014718 Rises=F Damp=F
 DIIS: error= 7.61D-07 at cycle  17 NSaved=   4.
 NSaved= 4 IEnMin= 1 EnMin= -75.7304843531888     IErMin= 4 ErrMin= 7.61D-07
 ErrMax= 7.61D-07  0.00D+00 EMaxC= 1.00D-01 BMatC= 3.29D-11 BMatP= 1.92D-11
 IDIUse=1 WtCom= 1.00D+00 WtEn= 0.00D+00
 Coeff-Com: -0.744D+01 0.814D+01-0.647D+00 0.940D+00
 Coeff:     -0.744D+01 0.814D+01-0.647D+00 0.940D+00
 Gap=     0.504 Goal=   None    Shift=    0.000
 Gap=     0.310 Goal=   None    Shift=    0.000
 RMSDP=7.65D-05 MaxDP=1.11D-03 DE= 1.47D-08 OVMax= 6.93D-03

 Cycle  24  Pass 1  IDiag  1:
 E= -75.7304842922182     Delta-E=        0.000000035934 Rises=F Damp=F
 DIIS: error= 3.54D-06 at cycle  18 NSaved=   5.
 NSaved= 5 IEnMin= 1 EnMin= -75.7304843531888     IErMin= 4 ErrMin= 7.61D-07
 ErrMax= 3.54D-06  0.00D+00 EMaxC= 1.00D-01 BMatC= 9.70D-10 BMatP= 1.92D-11
 IDIUse=1 WtCom= 1.00D+00 WtEn= 0.00D+00
 Large coefficients: NSaved=  5 BigCof=   95.02 CofMax=   10.00 Det=-5.12D-15
 Inversion failed.  Reducing to  4 matrices.
 Coeff-Com: -0.667D+01 0.328D+01 0.488D+01-0.492D+00
 Coeff:     -0.667D+01 0.328D+01 0.488D+01-0.492D+00
 Gap=     0.504 Goal=   None    Shift=    0.000
 Gap=     0.310 Goal=   None    Shift=    0.000
 RMSDP=9.69D-05 MaxDP=1.39D-03 DE= 3.59D-08 OVMax= 8.78D-03

 Cycle  25  Pass 1  IDiag  1:
 E= -75.7304842484590     Delta-E=        0.000000043759 Rises=F Damp=F
 DIIS: error= 1.21D-05 at cycle  19 NSaved=   5.
 NSaved= 5 IEnMin= 1 EnMin= -75.7304843531888     IErMin= 3 ErrMin= 7.61D-07
 ErrMax= 1.21D-05  0.00D+00 EMaxC= 1.00D-01 BMatC= 1.16D-08 BMatP= 1.92D-11
 IDIUse=1 WtCom= 1.00D+00 WtEn= 0.00D+00
 Coeff-Com: -0.133D+01 0.102D+01-0.220D+01 0.481D+01-0.130D+01
 Coeff:     -0.133D+01 0.102D+01-0.220D+01 0.481D+01-0.130D+01
 Gap=     0.504 Goal=   None    Shift=    0.000
 Gap=     0.310 Goal=   None    Shift=    0.000
 RMSDP=3.15D-06 MaxDP=4.52D-05 DE= 4.38D-08 OVMax= 2.85D-04

 Cycle  26  Pass 1  IDiag  1:
 E= -75.7304842500530     Delta-E=       -0.000000001594 Rises=F Damp=F
 DIIS: error= 1.13D-05 at cycle  20 NSaved=   6.
 NSaved= 6 IEnMin= 1 EnMin= -75.7304843531888     IErMin= 3 ErrMin= 7.61D-07
 ErrMax= 1.13D-05  0.00D+00 EMaxC= 1.00D-01 BMatC= 9.81D-09 BMatP= 1.92D-11
 IDIUse=1 WtCom= 1.00D+00 WtEn= 0.00D+00
 Coeff-Com: -0.149D+01 0.168D+01-0.303D+01 0.515D+01-0.193D+01 0.612D+00
 Coeff:     -0.149D+01 0.168D+01-0.303D+01 0.515D+01-0.193D+01 0.612D+00
 Gap=     0.504 Goal=   None    Shift=    0.000
 Gap=     0.310 Goal=   None    Shift=    0.000
 RMSDP=2.44D-06 MaxDP=3.47D-05 DE=-1.59D-09 OVMax= 2.21D-04

 Cycle  27  Pass 1  IDiag  1:
 E= -75.7304842490865     Delta-E=        0.000000000966 Rises=F Damp=F
 DIIS: error= 1.12D-05 at cycle  21 NSaved=   7.
 NSaved= 7 IEnMin= 1 EnMin= -75.7304843531888     IErMin= 3 ErrMin= 7.61D-07
 ErrMax= 1.12D-05  0.00D+00 EMaxC= 1.00D-01 BMatC= 9.57D-09 BMatP= 1.92D-11
 IDIUse=1 WtCom= 1.00D+00 WtEn= 0.00D+00
 Large coefficients: NSaved=  7 BigCof=   66.72 CofMax=   10.00 Det=-7.30D-16
 Inversion failed.  Reducing to  6 matrices.
 Large coefficients: NSaved=  6 BigCof=   26.29 CofMax=   10.00 Det=-4.95D-15
 Inversion failed.  Reducing to  5 matrices.
 Coeff-Com: -0.553D+01 0.133D+01 0.529D+01-0.600D+01 0.590D+01
 Coeff:     -0.553D+01 0.133D+01 0.529D+01-0.600D+01 0.590D+01
 Gap=     0.504 Goal=   None    Shift=    0.000
 Gap=     0.311 Goal=   None    Shift=    0.000
 RMSDP=5.44D-05 MaxDP=7.74D-04 DE= 9.66D-10 OVMax= 4.93D-03

 Cycle  28  Pass 1  IDiag  1:
 E= -75.7304842253564     Delta-E=        0.000000023730 Rises=F Damp=F
 DIIS: error= 1.67D-05 at cycle  22 NSaved=   6.
 NSaved= 6 IEnMin= 1 EnMin= -75.7304843531888     IErMin= 3 ErrMin= 7.61D-07
 ErrMax= 1.67D-05  0.00D+00 EMaxC= 1.00D-01 BMatC= 2.17D-08 BMatP= 1.92D-11
 IDIUse=1 WtCom= 1.00D+00 WtEn= 0.00D+00
 Coeff-Com: -0.587D+01 0.351D+01 0.298D+01 0.145D+01-0.103D+00-0.963D+00
 Coeff:     -0.587D+01 0.351D+01 0.298D+01 0.145D+01-0.103D+00-0.963D+00
 Gap=     0.504 Goal=   None    Shift=    0.000
 Gap=     0.310 Goal=   None    Shift=    0.000
 RMSDP=5.62D-05 MaxDP=7.98D-04 DE= 2.37D-08 OVMax= 5.09D-03

 Cycle  29  Pass 1  IDiag  1:
 E= -75.7304842490375     Delta-E=       -0.000000023681 Rises=F Damp=F
 DIIS: error= 1.34D-05 at cycle  23 NSaved=   7.
 NSaved= 7 IEnMin= 1 EnMin= -75.7304843531888     IErMin= 3 ErrMin= 7.61D-07
 ErrMax= 1.34D-05  0.00D+00 EMaxC= 1.00D-01 BMatC= 1.40D-08 BMatP= 1.92D-11
 IDIUse=1 WtCom= 1.00D+00 WtEn= 0.00D+00
 Large coefficients: NSaved=  7 BigCof=   40.70 CofMax=   10.00 Det=-3.91D-16
 Inversion failed.  Reducing to  6 matrices.
 Coeff-Com: -0.609D+01 0.392D+01 0.262D+01 0.238D+01-0.869D+00-0.970D+00
 Coeff:     -0.609D+01 0.392D+01 0.262D+01 0.238D+01-0.869D+00-0.970D+00
 Gap=     0.504 Goal=   None    Shift=    0.000
 Gap=     0.311 Goal=   None    Shift=    0.000
 RMSDP=2.68D-05 MaxDP=3.81D-04 DE=-2.37D-08 OVMax= 2.43D-03

 Cycle  30  Pass 1  IDiag  1:
 E= -75.7304842378388     Delta-E=        0.000000011199 Rises=F Damp=F
 DIIS: error= 1.43D-05 at cycle  24 NSaved=   7.
 NSaved= 7 IEnMin= 1 EnMin= -75.7304843531888     IErMin= 3 ErrMin= 7.61D-07
 ErrMax= 1.43D-05  0.00D+00 EMaxC= 1.00D-01 BMatC= 1.59D-08 BMatP= 1.92D-11
 IDIUse=1 WtCom= 1.00D+00 WtEn= 0.00D+00
 Large coefficients: NSaved=  7 BigCof=   22.93 CofMax=   10.00 Det=-3.04D-15
 Inversion failed.  Reducing to  6 matrices.
 Coeff-Com: -0.643D+01 0.502D+01 0.160D+01 0.409D+01-0.716D+00-0.256D+01
 Coeff:     -0.643D+01 0.502D+01 0.160D+01 0.409D+01-0.716D+00-0.256D+01
 Gap=     0.504 Goal=   None    Shift=    0.000
 Gap=     0.311 Goal=   None    Shift=    0.000
 RMSDP=1.73D-06 MaxDP=2.48D-05 DE= 1.12D-08 OVMax= 1.57D-04

 Cycle  31  Pass 1  IDiag  1:
 E= -75.7304842388239     Delta-E=       -0.000000000985 Rises=F Damp=F
 DIIS: error= 1.35D-05 at cycle  25 NSaved=   7.
 NSaved= 7 IEnMin= 1 EnMin= -75.7304843531888     IErMin= 3 ErrMin= 7.61D-07
 ErrMax= 1.35D-05  0.00D+00 EMaxC= 1.00D-01 BMatC= 1.42D-08 BMatP= 1.92D-11
 IDIUse=1 WtCom= 1.00D+00 WtEn= 0.00D+00
 Large coefficients: NSaved=  7 BigCof=   71.62 CofMax=   10.00 Det=-1.66D-15
 Inversion failed.  Reducing to  6 matrices.
 Large coefficients: NSaved=  6 BigCof=   43.32 CofMax=   10.00 Det=-3.13D-15
 Inversion failed.  Reducing to  5 matrices.
 Large coefficients: NSaved=  5 BigCof=   23.79 CofMax=   10.00 Det=-8.29D-15
 Inversion failed.  Reducing to  4 matrices.
 Large coefficients: NSaved=  4 BigCof=   26.74 CofMax=   10.00 Det=-8.61D-15
 Inversion failed.  Reducing to  3 matrices.
 Large coefficients: NSaved=  3 BigCof=   25.46 CofMax=   10.00 Det=-1.05D-14
 Inversion failed.  Reducing to  2 matrices.
 Large coefficients: NSaved=  2 BigCof=   17.81 CofMax=   10.00 Det=-5.00D-11
 Coeff-Com: -0.168D+02 0.178D+02
 Coeff:     -0.168D+02 0.178D+02
 Gap=     0.504 Goal=   None    Shift=    0.000
 Gap=     0.310 Goal=   None    Shift=    0.000
 RMSDP=2.92D-05 MaxDP=4.19D-04 DE=-9.85D-10 OVMax= 2.64D-03

 Cycle  32  Pass 1  IDiag  1:
 E= -75.7304842530905     Delta-E=       -0.000000014267 Rises=F Damp=F
 DIIS: error= 6.61D-07 at cycle  26 NSaved=   3.
 NSaved= 3 IEnMin= 3 EnMin= -75.7304842530905     IErMin= 3 ErrMin= 6.61D-07
 ErrMax= 6.61D-07  0.00D+00 EMaxC= 1.00D-01 BMatC= 1.76D-11 BMatP= 1.42D-08
 IDIUse=1 WtCom= 1.00D+00 WtEn= 0.00D+00
 Coeff-Com: -0.578D+01 0.611D+01 0.667D+00
 Coeff:     -0.578D+01 0.611D+01 0.667D+00
 Gap=     0.504 Goal=   None    Shift=    0.000
 Gap=     0.310 Goal=   None    Shift=    0.000
 RMSDP=3.81D-07 MaxDP=5.46D-06 DE=-1.43D-08 OVMax= 3.45D-05

 Cycle  33  Pass 1  IDiag  1:
 E= -75.7304842532489     Delta-E=       -0.000000000158 Rises=F Damp=F
 DIIS: error= 6.59D-07 at cycle  27 NSaved=   4.
 NSaved= 4 IEnMin= 4 EnMin= -75.7304842532489     IErMin= 4 ErrMin= 6.59D-07
 ErrMax= 6.59D-07  0.00D+00 EMaxC= 1.00D-01 BMatC= 1.41D-11 BMatP= 1.76D-11
 IDIUse=1 WtCom= 1.00D+00 WtEn= 0.00D+00
 Coeff-Com: -0.600D+01 0.635D+01 0.107D+00 0.541D+00
 Coeff:     -0.600D+01 0.635D+01 0.107D+00 0.541D+00
 Gap=     0.504 Goal=   None    Shift=    0.000
 Gap=     0.310 Goal=   None    Shift=    0.000
 RMSDP=2.80D-08 MaxDP=3.99D-07 DE=-1.58D-10 OVMax= 2.54D-06

 Cycle  34  Pass 1  IDiag  1:
 E= -75.7304842532604     Delta-E=       -0.000000000011 Rises=F Damp=F
 DIIS: error= 6.58D-07 at cycle  28 NSaved=   5.
 NSaved= 5 IEnMin= 5 EnMin= -75.7304842532604     IErMin= 5 ErrMin= 6.58D-07
 ErrMax= 6.58D-07  0.00D+00 EMaxC= 1.00D-01 BMatC= 1.41D-11 BMatP= 1.41D-11
 IDIUse=1 WtCom= 1.00D+00 WtEn= 0.00D+00
 Large coefficients: NSaved=  5 BigCof=   11.64 CofMax=   10.00 Det=-1.76D-15
 Inversion failed.  Reducing to  4 matrices.
 Coeff-Com: -0.169D-01 0.956D+00 0.147D+01-0.141D+01
 Coeff:     -0.169D-01 0.956D+00 0.147D+01-0.141D+01
 Gap=     0.504 Goal=   None    Shift=    0.000
 Gap=     0.310 Goal=   None    Shift=    0.000
 RMSDP=1.45D-07 MaxDP=2.09D-06 DE=-1.15D-11 OVMax= 1.31D-05

 Cycle  35  Pass 1  IDiag  1:
 E= -75.7304842533206     Delta-E=       -0.000000000060 Rises=F Damp=F
 DIIS: error= 6.58D-07 at cycle  29 NSaved=   5.
 NSaved= 5 IEnMin= 5 EnMin= -75.7304842533206     IErMin= 5 ErrMin= 6.58D-07
 ErrMax= 6.58D-07  0.00D+00 EMaxC= 1.00D-01 BMatC= 1.36D-11 BMatP= 1.41D-11
 IDIUse=1 WtCom= 1.00D+00 WtEn= 0.00D+00
 Large coefficients: NSaved=  5 BigCof=   22.64 CofMax=   10.00 Det=-8.59D-16
 Inversion failed.  Reducing to  4 matrices.
 Coeff-Com:  0.502D+00-0.594D+00-0.821D+00 0.191D+01
 Coeff:      0.502D+00-0.594D+00-0.821D+00 0.191D+01
 Gap=     0.504 Goal=   None    Shift=    0.000
 Gap=     0.310 Goal=   None    Shift=    0.000
 RMSDP=2.08D-08 MaxDP=2.93D-07 DE=-6.02D-11 OVMax= 1.88D-06

 Cycle  36  Pass 1  IDiag  1:
 E= -75.7304842533291     Delta-E=       -0.000000000009 Rises=F Damp=F
 DIIS: error= 6.57D-07 at cycle  30 NSaved=   5.
 NSaved= 5 IEnMin= 5 EnMin= -75.7304842533291     IErMin= 5 ErrMin= 6.57D-07
 ErrMax= 6.57D-07  0.00D+00 EMaxC= 1.00D-01 BMatC= 1.36D-11 BMatP= 1.36D-11
 IDIUse=1 WtCom= 1.00D+00 WtEn= 0.00D+00
 Large coefficients: NSaved=  5 BigCof=  117.22 CofMax=   10.00 Det=-1.98D-17
 Inversion failed.  Reducing to  4 matrices.
 Coeff-Com: -0.146D+01 0.138D+01 0.296D+01-0.188D+01
 Coeff:     -0.146D+01 0.138D+01 0.296D+01-0.188D+01
 Gap=     0.504 Goal=   None    Shift=    0.000
 Gap=     0.310 Goal=   None    Shift=    0.000
 RMSDP=6.92D-08 MaxDP=9.86D-07 DE=-8.55D-12 OVMax= 6.27D-06

 Cycle  37  Pass 1  IDiag  1:
 E= -75.7304842533578     Delta-E=       -0.000000000029 Rises=F Damp=F
 DIIS: error= 6.57D-07 at cycle  31 NSaved=   5.
 NSaved= 5 IEnMin= 5 EnMin= -75.7304842533578     IErMin= 4 ErrMin= 6.57D-07
 ErrMax= 6.57D-07  0.00D+00 EMaxC= 1.00D-01 BMatC= 1.36D-11 BMatP= 1.36D-11
 IDIUse=1 WtCom= 1.00D+00 WtEn= 0.00D+00
 Large coefficients: NSaved=  5 BigCof=  101.91 CofMax=   10.00 Det=-1.17D-16
 Inversion failed.  Reducing to  4 matrices.
 Large coefficients: NSaved=  4 BigCof=   76.85 CofMax=   10.00 Det=-1.30D-16
 Inversion failed.  Reducing to  3 matrices.
 Large coefficients: NSaved=  3 BigCof=   23.93 CofMax=   10.00 Det=-3.46D-16
 Inversion failed.  Reducing to  2 matrices.
 Coeff-Com: -0.160D-01 0.102D+01
 Coeff:     -0.160D-01 0.102D+01
 Gap=     0.504 Goal=   None    Shift=    0.000
 Gap=     0.310 Goal=   None    Shift=    0.000
 RMSDP=7.82D-08 MaxDP=1.11D-06 DE=-2.86D-11 OVMax= 7.08D-06

 Cycle  38  Pass 1  IDiag  1:
 E= -75.7304842533901     Delta-E=       -0.000000000032 Rises=F Damp=F
 DIIS: error= 6.57D-07 at cycle  32 NSaved=   3.
 NSaved= 3 IEnMin= 3 EnMin= -75.7304842533901     IErMin= 3 ErrMin= 6.57D-07
 ErrMax= 6.57D-07  0.00D+00 EMaxC= 1.00D-01 BMatC= 1.36D-11 BMatP= 1.36D-11
 IDIUse=1 WtCom= 1.00D+00 WtEn= 0.00D+00
 Coeff-Com:  0.336D+01-0.543D+00-0.182D+01
 Coeff:      0.336D+01-0.543D+00-0.182D+01
 Gap=     0.504 Goal=   None    Shift=    0.000
 Gap=     0.310 Goal=   None    Shift=    0.000
 RMSDP=3.76D-07 MaxDP=5.36D-06 DE=-3.23D-11 OVMax= 3.41D-05

 Cycle  39  Pass 1  IDiag  1:
 E= -75.7304842532341     Delta-E=        0.000000000156 Rises=F Damp=F
 DIIS: error= 6.56D-07 at cycle  33 NSaved=   4.
 NSaved= 4 IEnMin= 3 EnMin= -75.7304842533901     IErMin= 4 ErrMin= 6.56D-07
 ErrMax= 6.56D-07  0.00D+00 EMaxC= 1.00D-01 BMatC= 1.36D-11 BMatP= 1.36D-11
 IDIUse=1 WtCom= 1.00D+00 WtEn= 0.00D+00
 Large coefficients: NSaved=  4 BigCof=   76.80 CofMax=   10.00 Det=-2.92D-17
 Inversion failed.  Reducing to  3 matrices.
 Coeff-Com:  0.119D+01-0.157D+01 0.139D+01
 Coeff:      0.119D+01-0.157D+01 0.139D+01
 Gap=     0.504 Goal=   None    Shift=    0.000
 Gap=     0.310 Goal=   None    Shift=    0.000
 RMSDP=1.61D-07 MaxDP=2.29D-06 DE= 1.56D-10 OVMax= 1.46D-05

 Cycle  40  Pass 1  IDiag  1:
 E= -75.7304842531673     Delta-E=        0.000000000067 Rises=F Damp=F
 DIIS: error= 6.56D-07 at cycle  34 NSaved=   4.
 NSaved= 4 IEnMin= 2 EnMin= -75.7304842533901     IErMin= 4 ErrMin= 6.56D-07
 ErrMax= 6.56D-07  0.00D+00 EMaxC= 1.00D-01 BMatC= 1.36D-11 BMatP= 1.36D-11
 IDIUse=1 WtCom= 1.00D+00 WtEn= 0.00D+00
 Large coefficients: NSaved=  4 BigCof=  221.71 CofMax=   10.00 Det=-2.79D-17
 Inversion failed.  Reducing to  3 matrices.
 Large coefficients: NSaved=  3 BigCof=   22.22 CofMax=   10.00 Det=-2.85D-16
 Inversion failed.  Reducing to  2 matrices.
 Coeff-Com:  0.384D+00 0.616D+00
 Coeff:      0.384D+00 0.616D+00
 Gap=     0.504 Goal=   None    Shift=    0.000
 Gap=     0.310 Goal=   None    Shift=    0.000
 RMSDP=1.39D-07 MaxDP=1.97D-06 DE= 6.68D-11 OVMax= 1.26D-05

 Cycle  41  Pass 1  IDiag  1:
 E= -75.7304842532250     Delta-E=       -0.000000000058 Rises=F Damp=F
 DIIS: error= 6.56D-07 at cycle  35 NSaved=   3.
 NSaved= 3 IEnMin= 1 EnMin= -75.7304842532341     IErMin= 3 ErrMin= 6.56D-07
 ErrMax= 6.56D-07  0.00D+00 EMaxC= 1.00D-01 BMatC= 1.36D-11 BMatP= 1.36D-11
 IDIUse=1 WtCom= 1.00D+00 WtEn= 0.00D+00
 Coeff-Com:  0.425D+00 0.634D+00-0.590D-01
 Coeff:      0.425D+00 0.634D+00-0.590D-01
 Gap=     0.504 Goal=   None    Shift=    0.000
 Gap=     0.310 Goal=   None    Shift=    0.000
 RMSDP=1.46D-09 MaxDP=2.08D-08 DE=-5.77D-11 OVMax= 1.32D-07

 SCF Done:  E(UM062X) =  -75.7304842532     A.U. after   41 cycles
            NFock= 41  Conv=0.15D-08     -V/T= 2.0039
 <Sx>= 0.0000 <Sy>= 0.0000 <Sz>= 0.5000 <S**2>= 0.7524 S= 0.5012
 <L.S>= 0.000000000000E+00
 KE= 7.543708455559D+01 PE=-1.881316241654D+02 EE= 3.259970722533D+01
 Annihilation of the first spin contaminant:
 S**2 before annihilation     0.7524,   after     0.7500
 Leave Link  502 at Fri Sep 25 11:23:24 2020, MaxMem=   268435456 cpu:              30.5 elap:               4.3
 (Enter /applis/site/cecic/gaussian16/B.01/nehalem/g16/l601.exe)
 Copying SCF densities to generalized density rwf, IOpCl= 1 IROHF=0.

 **********************************************************************

            Population analysis using the SCF Density.

 **********************************************************************

 Alpha  occ. eigenvalues --  -19.68580  -1.14080  -0.56021  -0.49854  -0.43556
 Alpha virt. eigenvalues --    0.06858   0.42231   0.57640   0.60064   0.62760
 Alpha virt. eigenvalues --    0.74287   0.75287   0.92288   1.30990   1.48074
 Alpha virt. eigenvalues --    1.48249   1.79520   1.82129   1.93030   2.47246
 Alpha virt. eigenvalues --    3.19399   3.19406   3.36965   3.39630   3.63298
 Alpha virt. eigenvalues --    3.65784   3.71766   4.06897   4.09965   4.37347
 Alpha virt. eigenvalues --    4.65912   5.11093   5.11177   5.36862   5.36979
 Alpha virt. eigenvalues --    6.15429   6.15586   6.26653   6.32276   6.35857
 Alpha virt. eigenvalues --    6.55583   6.59670   6.97591  10.20458
  Beta  occ. eigenvalues --  -19.66958  -1.05701  -0.52827  -0.39981
  Beta virt. eigenvalues --   -0.08955   0.06696   0.42128   0.57111   0.63255
  Beta virt. eigenvalues --    0.63259   0.73871   0.75174   0.93114   1.32561
  Beta virt. eigenvalues --    1.52021   1.53277   1.82167   1.83095   1.92774
  Beta virt. eigenvalues --    2.48333   3.19858   3.19880   3.41589   3.42027
  Beta virt. eigenvalues --    3.66622   3.68100   3.72063   4.11270   4.11491
  Beta virt. eigenvalues --    4.39439   4.68286   5.14371   5.17184   5.39659
  Beta virt. eigenvalues --    5.39867   6.27578   6.27793   6.35171   6.37980
  Beta virt. eigenvalues --    6.40295   6.59703   6.61270   7.00482  10.23457
          Condensed to atoms (all electrons):
               1          2
     1  O    7.977809   0.290877
     2  H    0.290877   0.440437
          Atomic-Atomic Spin Densities.
               1          2
     1  O    1.012641   0.004931
     2  H    0.004931  -0.022504
 Mulliken charges and spin densities:
               1          2
     1  O   -0.268686   1.017573
     2  H    0.268686  -0.017573
 Sum of Mulliken charges =  -0.00000   1.00000
 Mulliken charges and spin densities with hydrogens summed into heavy atoms:
               1          2
     1  O   -0.000000   1.000000
 Electronic spatial extent (au):  <R**2>=             15.3864
 Charge=             -0.0000 electrons
 Dipole moment (field-independent basis, Debye):
    X=              0.0000    Y=             -0.0000    Z=              1.7252  Tot=              1.7252
 Quadrupole moment (field-independent basis, Debye-Ang):
   XX=             -6.4991   YY=             -5.5090   ZZ=             -4.1678
   XY=             -0.3340   XZ=              0.0000   YZ=             -0.0000
 Traceless Quadrupole moment (field-independent basis, Debye-Ang):
   XX=             -1.1071   YY=             -0.1171   ZZ=              1.2242
   XY=             -0.3340   XZ=              0.0000   YZ=             -0.0000
 Octapole moment (field-independent basis, Debye-Ang**2):
  XXX=              0.0000  YYY=              0.0000  ZZZ=              0.5593  XYY=              0.0000
  XXY=              0.0000  XXZ=             -0.4685  XZZ=              0.0000  YZZ=             -0.0000
  YYZ=             -0.4269  XYZ=             -0.0140
 Hexadecapole moment (field-independent basis, Debye-Ang**3):
 XXXX=             -5.0380 YYYY=             -3.7642 ZZZZ=             -4.5933 XXXY=             -0.2146
 XXXZ=              0.0000 YYYX=             -0.2151 YYYZ=             -0.0000 ZZZX=              0.0000
 ZZZY=             -0.0000 XXYY=             -1.4671 XXZZ=             -1.9902 YYZZ=             -1.7605
 XXYZ=             -0.0000 YYXZ=              0.0000 ZZXY=             -0.0775
 N-N= 4.364348131299D+00 E-N=-1.881316241653D+02  KE= 7.543708455559D+01
                          Isotropic Fermi Contact Couplings
        Atom                 a.u.       MegaHertz       Gauss      10(-4) cm-1
     1  O(17)              0.17799    -107.89472     -38.49952     -35.98980
     2  H(1)              -0.01588     -70.98208     -25.32817     -23.67707
 --------------------------------------------------------
       Center         ----  Spin Dipole Couplings  ----
                      3XX-RR        3YY-RR        3ZZ-RR
 --------------------------------------------------------
     1   Atom       -1.421363      3.284296     -1.862933
     2   Atom       -0.126941     -0.043768      0.170710
 --------------------------------------------------------
                        XY            XZ            YZ
 --------------------------------------------------------
     1   Atom       -1.587378     -0.000000     -0.000000
     2   Atom       -0.028057      0.000000      0.000000
 --------------------------------------------------------


 ---------------------------------------------------------------------------------
              Anisotropic Spin Dipole Couplings in Principal Axis System
 ---------------------------------------------------------------------------------

       Atom             a.u.   MegaHertz   Gauss  10(-4) cm-1        Axes

              Baa    -1.9068   137.972    49.232    46.023  0.9563  0.2924  0.0000
     1 O(17)  Bbb    -1.8629   134.801    48.100    44.965 -0.0000 -0.0000  1.0000
              Bcc     3.7697  -272.773   -97.332   -90.987 -0.2924  0.9563  0.0000
 
              Baa    -0.1355   -72.308   -25.801   -24.119  0.9563  0.2924 -0.0000
     2 H(1)   Bbb    -0.0352   -18.775    -6.699    -6.263 -0.2924  0.9563 -0.0000
              Bcc     0.1707    91.083    32.501    30.382  0.0000  0.0000  1.0000
 

 ---------------------------------------------------------------------------------

 No NMR shielding tensors so no spin-rotation constants.
 Leave Link  601 at Fri Sep 25 11:23:25 2020, MaxMem=   268435456 cpu:               3.5 elap:               0.7
 (Enter /applis/site/cecic/gaussian16/B.01/nehalem/g16/l701.exe)
 ... and contract with generalized density number  0.
 Compute integral first derivatives.
 Leave Link  701 at Fri Sep 25 11:23:25 2020, MaxMem=   268435456 cpu:               1.8 elap:               0.4
 (Enter /applis/site/cecic/gaussian16/B.01/nehalem/g16/l702.exe)
 L702 exits ... SP integral derivatives will be done elsewhere.
 Leave Link  702 at Fri Sep 25 11:23:25 2020, MaxMem=   268435456 cpu:               0.5 elap:               0.1
 (Enter /applis/site/cecic/gaussian16/B.01/nehalem/g16/l703.exe)
 Integral derivatives from FoFJK, PRISM(SPDF).
 Compute integral first derivatives, UseDBF=F ICtDFT=           0.
 Calling FoFJK, ICntrl=      2127 FMM=F ISym2X=0 I1Cent= 0 IOpClX= 1 NMat=1 NMatS=1 NMatT=0.
 FoFJK:  IHMeth= 1 ICntrl=    2127 DoSepK=F KAlg= 0 I1Cent=           0 FoldK=F
 IRaf=         0 NMat=       1 IRICut=       1 DoRegI=T DoRafI=F ISym2E= 0 IDoP0=0 IntGTp=1.
 FoFCou: FMM=F IPFlag=           0 FMFlag=      100000 FMFlg1=         800
         NFxFlg=           0 DoJE=F BraDBF=F KetDBF=F FulRan=T
         wScrn=  0.000000 ICntrl=      2127 IOpCl=  1 I1Cent=           0 NGrid=           0
         NMat0=    1 NMatS0=      1 NMatT0=    0 NMatD0=    1 NMtDS0=    0 NMtDT0=    0
 Symmetry not used in FoFCou.
 Leave Link  703 at Fri Sep 25 11:23:26 2020, MaxMem=   268435456 cpu:               4.3 elap:               0.7
 (Enter /applis/site/cecic/gaussian16/B.01/nehalem/g16/l716.exe)
 Dipole        = 1.37528661D-15-2.21462386D-17 6.78733773D-01
 -------------------------------------------------------------------
 Center     Atomic                   Forces (Hartrees/Bohr)
 Number     Number              X              Y              Z
 -------------------------------------------------------------------
      1        8           0.000000000    0.000000000   -0.001381019
      2        1          -0.000000000   -0.000000000    0.001381019
 -------------------------------------------------------------------
 Cartesian Forces:  Max     0.001381019 RMS     0.000797332
 Leave Link  716 at Fri Sep 25 11:23:26 2020, MaxMem=   268435456 cpu:               0.5 elap:               0.1
 (Enter /applis/site/cecic/gaussian16/B.01/nehalem/g16/l103.exe)

 GradGradGradGradGradGradGradGradGradGradGradGradGradGradGradGradGradGrad
 Berny optimization.
 FormGI is forming the generalized inverse of G from B-inverse, IUseBI=4.
 Internal  Forces:  Max     0.001381019 RMS     0.001381019
 Search for a local minimum.
 Step number   1 out of a maximum of  100
 All quantities printed in internal units (Hartrees-Bohrs-Radians)
 RMS Force = .13810D-02 SwitMx=.10000D-02 MixMth= 1
 Mixed Optimization -- RFO/linear search
 Second derivative matrix not updated -- first step.
 The second derivative matrix:
                          R1
           R1           0.53377
 ITU=  0
     Eigenvalues ---    0.53377
 RFO step:  Lambda=-3.57307806D-06 EMin= 5.33769442D-01
 Linear search not attempted -- first point.
 Iteration  1 RMS(Cart)=  0.00182948 RMS(Int)=  0.00000000
 Iteration  2 RMS(Cart)=  0.00000000 RMS(Int)=  0.00000000
 ITry= 1 IFail=0 DXMaxC= 1.29D-03 DCOld= 1.00D+10 DXMaxT= 3.00D-01 DXLimC= 3.00D+00 Rises=F
 Variable       Old X    -DE/DX   Delta X   Delta X   Delta X     New X
                                 (Linear)    (Quad)   (Total)
    R1        1.83303   0.00138   0.00000   0.00259   0.00259   1.83562
         Item               Value     Threshold  Converged?
 Maximum Force            0.001381     0.000450     NO 
 RMS     Force            0.001381     0.000300     NO 
 Maximum Displacement     0.001294     0.001800     YES
 RMS     Displacement     0.001829     0.001200     NO 
 Predicted change in Energy=-1.786551D-06
 Lowest energy point so far.  Saving SCF results.
 GradGradGradGradGradGradGradGradGradGradGradGradGradGradGradGradGradGrad

 Leave Link  103 at Fri Sep 25 11:23:27 2020, MaxMem=   268435456 cpu:               1.7 elap:               0.3
 (Enter /applis/site/cecic/gaussian16/B.01/nehalem/g16/l202.exe)
                          Input orientation:                          
 ---------------------------------------------------------------------
 Center     Atomic      Atomic             Coordinates (Angstroms)
 Number     Number       Type             X           Y           Z
 ---------------------------------------------------------------------
      1          8           0        0.000000    0.000000   -0.000685
      2          1           0        0.000000    0.000000    0.970685
 ---------------------------------------------------------------------
 Symmetry turned off by external request.
 Stoichiometry    HO(2)
 Framework group  C*V[C*(HO)]
 Deg. of freedom     1
 Full point group                 C*V     NOp   4
 Rotational constants (GHZ):           0.0000000         564.9375497         564.9375497
 Leave Link  202 at Fri Sep 25 11:23:27 2020, MaxMem=   268435456 cpu:               0.8 elap:               0.2
 (Enter /applis/site/cecic/gaussian16/B.01/nehalem/g16/l301.exe)
 Standard basis: CC-pVTZ (5D, 7F)
 Ernie: Thresh=  0.10000D-02 Tol=  0.10000D-05 Strict=F.
 Ernie:  3 primitive shells out of 34 were deleted.
    44 basis functions,    69 primitive gaussians,    50 cartesian basis functions
     5 alpha electrons        4 beta electrons
       nuclear repulsion energy         4.3581966577 Hartrees.
 IExCor= 4336 DFT=T Ex+Corr=M062X ExCW=0 ScaHFX=  0.540000
 ScaDFX=  1.000000  1.000000  1.000000  1.000000 ScalE2=  1.000000  1.000000
 IRadAn=      5 IRanWt=     -1 IRanGd=            0 ICorTp=0 IEmpDi=  4
 NAtoms=    2 NActive=    2 NUniq=    2 SFac= 1.00D+00 NAtFMM=   60 NAOKFM=F Big=F
 Integral buffers will be    131072 words long.
 Raffenetti 2 integral format.
 Two-electron integral symmetry is turned off.
 Leave Link  301 at Fri Sep 25 11:23:27 2020, MaxMem=   268435456 cpu:               0.6 elap:               0.1
 (Enter /applis/site/cecic/gaussian16/B.01/nehalem/g16/l302.exe)
 NPDir=0 NMtPBC=     1 NCelOv=     1 NCel=       1 NClECP=     1 NCelD=      1
         NCelK=      1 NCelE2=     1 NClLst=     1 CellRange=     0.0.
 One-electron integrals computed using PRISM.
 NBasis=    44 RedAO= T EigKep=  4.10D-03  NBF=    44
 NBsUse=    44 1.00D-06 EigRej= -1.00D+00 NBFU=    44
 Precomputing XC quadrature grid using
 IXCGrd= 4 IRadAn=           5 IRanWt=          -1 IRanGd=           0 AccXCQ= 0.00D+00.
 Generated NRdTot=       0 NPtTot=           0 NUsed=           0 NTot=          32
 NSgBfM=    50    50    50    50    50 MxSgAt=     2 MxSgA2=     2.
 Leave Link  302 at Fri Sep 25 11:23:27 2020, MaxMem=   268435456 cpu:               1.8 elap:               0.3
 (Enter /applis/site/cecic/gaussian16/B.01/nehalem/g16/l303.exe)
 DipDrv:  MaxL=1.
 Leave Link  303 at Fri Sep 25 11:23:27 2020, MaxMem=   268435456 cpu:               1.0 elap:               0.2
 (Enter /applis/site/cecic/gaussian16/B.01/nehalem/g16/l401.exe)
 Initial guess from the checkpoint file:  "input.chk"
 B after Tr=     0.000000    0.000000   -0.001006
         Rot=    1.000000    0.000000    0.000000    0.000000 Ang=   0.00 deg.
 Guess basis will be translated and rotated to current coordinates.
 JPrj=2 DoOrth=T DoCkMO=T.
 Initial guess <Sx>= 0.0000 <Sy>= 0.0000 <Sz>= 0.5000 <S**2>= 0.7524 S= 0.5012
 Leave Link  401 at Fri Sep 25 11:23:28 2020, MaxMem=   268435456 cpu:               1.1 elap:               0.2
 (Enter /applis/site/cecic/gaussian16/B.01/nehalem/g16/l502.exe)
 Keep R1 and R2 ints in memory in canonical form, NReq=7968554.
 FoFCou: FMM=F IPFlag=           0 FMFlag=           0 FMFlg1=           0
         NFxFlg=           0 DoJE=F BraDBF=F KetDBF=F FulRan=T
         wScrn=  0.000000 ICntrl=       600 IOpCl=  0 I1Cent=           0 NGrid=           0
         NMat0=    1 NMatS0=    990 NMatT0=    0 NMatD0=    1 NMtDS0=    0 NMtDT0=    0
 Symmetry not used in FoFCou.
 Two-electron integral symmetry not used.
 UHF open shell SCF:
 Using DIIS extrapolation, IDIIS=  1040.
 NGot=   268435456 LenX=   267448500 LenY=   267445559
 Requested convergence on RMS density matrix=1.00D-08 within 128 cycles.
 Requested convergence on MAX density matrix=1.00D-06.
 Requested convergence on             energy=1.00D-06.
 No special actions if energy rises.

 Cycle   1  Pass 1  IDiag  1:
 E= -75.7304855962307    
 DIIS: error= 1.94D-04 at cycle   1 NSaved=   1.
 NSaved= 1 IEnMin= 1 EnMin= -75.7304855962307     IErMin= 1 ErrMin= 1.94D-04
 ErrMax= 1.94D-04  0.00D+00 EMaxC= 1.00D-01 BMatC= 2.61D-06 BMatP= 2.61D-06
 IDIUse=3 WtCom= 9.98D-01 WtEn= 1.94D-03
 Coeff-Com:  0.100D+01
 Coeff-En:   0.100D+01
 Coeff:      0.100D+01
 Gap=     2.111 Goal=   None    Shift=    0.000
 Gap=     2.316 Goal=   None    Shift=    0.000
 RMSDP=1.22D-05 MaxDP=1.15D-04              OVMax= 3.56D-04

 Cycle   2  Pass 1  IDiag  1:
 E= -75.7304860622555     Delta-E=       -0.000000466025 Rises=F Damp=F
 DIIS: error= 4.10D-05 at cycle   2 NSaved=   2.
 NSaved= 2 IEnMin= 2 EnMin= -75.7304860622555     IErMin= 2 ErrMin= 4.10D-05
 ErrMax= 4.10D-05  0.00D+00 EMaxC= 1.00D-01 BMatC= 2.50D-07 BMatP= 2.61D-06
 IDIUse=1 WtCom= 1.00D+00 WtEn= 0.00D+00
 Coeff-Com:  0.132D+00 0.868D+00
 Coeff:      0.132D+00 0.868D+00
 Gap=     0.504 Goal=   None    Shift=    0.000
 Gap=     0.310 Goal=   None    Shift=    0.000
 RMSDP=3.84D-06 MaxDP=6.03D-05 DE=-4.66D-07 OVMax= 8.67D-05

 Cycle   3  Pass 1  IDiag  1:
 E= -75.7304860919002     Delta-E=       -0.000000029645 Rises=F Damp=F
 DIIS: error= 2.20D-05 at cycle   3 NSaved=   3.
 NSaved= 3 IEnMin= 3 EnMin= -75.7304860919002     IErMin= 3 ErrMin= 2.20D-05
 ErrMax= 2.20D-05  0.00D+00 EMaxC= 1.00D-01 BMatC= 7.06D-08 BMatP= 2.50D-07
 IDIUse=1 WtCom= 1.00D+00 WtEn= 0.00D+00
 Coeff-Com: -0.135D-01 0.329D+00 0.685D+00
 Coeff:     -0.135D-01 0.329D+00 0.685D+00
 Gap=     0.504 Goal=   None    Shift=    0.000
 Gap=     0.310 Goal=   None    Shift=    0.000
 RMSDP=1.44D-06 MaxDP=2.30D-05 DE=-2.96D-08 OVMax= 5.26D-05

 Cycle   4  Pass 1  IDiag  1:
 E= -75.7304861033030     Delta-E=       -0.000000011403 Rises=F Damp=F
 DIIS: error= 3.74D-06 at cycle   4 NSaved=   4.
 NSaved= 4 IEnMin= 4 EnMin= -75.7304861033030     IErMin= 4 ErrMin= 3.74D-06
 ErrMax= 3.74D-06  0.00D+00 EMaxC= 1.00D-01 BMatC= 2.14D-09 BMatP= 7.06D-08
 IDIUse=1 WtCom= 1.00D+00 WtEn= 0.00D+00
 Coeff-Com: -0.105D-01 0.798D-02 0.150D+00 0.853D+00
 Coeff:     -0.105D-01 0.798D-02 0.150D+00 0.853D+00
 Gap=     0.504 Goal=   None    Shift=    0.000
 Gap=     0.310 Goal=   None    Shift=    0.000
 RMSDP=3.90D-07 MaxDP=6.65D-06 DE=-1.14D-08 OVMax= 8.97D-06

 Cycle   5  Pass 1  IDiag  1:
 E= -75.7304861037840     Delta-E=       -0.000000000481 Rises=F Damp=F
 DIIS: error= 1.17D-06 at cycle   5 NSaved=   5.
 NSaved= 5 IEnMin= 5 EnMin= -75.7304861037840     IErMin= 5 ErrMin= 1.17D-06
 ErrMax= 1.17D-06  0.00D+00 EMaxC= 1.00D-01 BMatC= 4.60D-11 BMatP= 2.14D-09
 IDIUse=1 WtCom= 1.00D+00 WtEn= 0.00D+00
 Coeff-Com:  0.110D-02-0.155D-01-0.393D-01-0.456D-01 0.110D+01
 Coeff:      0.110D-02-0.155D-01-0.393D-01-0.456D-01 0.110D+01
 Gap=     0.504 Goal=   None    Shift=    0.000
 Gap=     0.310 Goal=   None    Shift=    0.000
 RMSDP=1.29D-07 MaxDP=1.17D-06 DE=-4.81D-10 OVMax= 7.86D-06

 Cycle   6  Pass 1  IDiag  1:
 E= -75.7304861038383     Delta-E=       -0.000000000054 Rises=F Damp=F
 DIIS: error= 6.47D-07 at cycle   6 NSaved=   6.
 NSaved= 6 IEnMin= 6 EnMin= -75.7304861038383     IErMin= 6 ErrMin= 6.47D-07
 ErrMax= 6.47D-07  0.00D+00 EMaxC= 1.00D-01 BMatC= 1.47D-11 BMatP= 4.60D-11
 IDIUse=1 WtCom= 1.00D+00 WtEn= 0.00D+00
 Coeff-Com: -0.819D-04 0.434D-02 0.764D-02-0.106D-01-0.307D+00 0.131D+01
 Coeff:     -0.819D-04 0.434D-02 0.764D-02-0.106D-01-0.307D+00 0.131D+01
 Gap=     0.504 Goal=   None    Shift=    0.000
 Gap=     0.310 Goal=   None    Shift=    0.000
 RMSDP=1.04D-07 MaxDP=1.45D-06 DE=-5.43D-11 OVMax= 9.19D-06

 Cycle   7  Pass 1  IDiag  1:
 E= -75.7304861038809     Delta-E=       -0.000000000043 Rises=F Damp=F
 DIIS: error= 6.47D-07 at cycle   7 NSaved=   7.
 NSaved= 7 IEnMin= 7 EnMin= -75.7304861038809     IErMin= 6 ErrMin= 6.47D-07
 ErrMax= 6.47D-07  0.00D+00 EMaxC= 1.00D-01 BMatC= 1.34D-11 BMatP= 1.47D-11
 IDIUse=1 WtCom= 1.00D+00 WtEn= 0.00D+00
 Coeff-Com: -0.390D-04-0.560D-03-0.225D-03 0.746D-02 0.449D-01-0.505D+00
 Coeff-Com:  0.145D+01
 Coeff:     -0.390D-04-0.560D-03-0.225D-03 0.746D-02 0.449D-01-0.505D+00
 Coeff:      0.145D+01
 Gap=     0.504 Goal=   None    Shift=    0.000
 Gap=     0.310 Goal=   None    Shift=    0.000
 RMSDP=1.17D-07 MaxDP=1.68D-06 DE=-4.26D-11 OVMax= 1.06D-05

 Cycle   8  Pass 1  IDiag  1:
 E= -75.7304861039288     Delta-E=       -0.000000000048 Rises=F Damp=F
 DIIS: error= 6.47D-07 at cycle   8 NSaved=   8.
 NSaved= 8 IEnMin= 8 EnMin= -75.7304861039288     IErMin= 6 ErrMin= 6.47D-07
 ErrMax= 6.47D-07  0.00D+00 EMaxC= 1.00D-01 BMatC= 1.32D-11 BMatP= 1.34D-11
 IDIUse=1 WtCom= 1.00D+00 WtEn= 0.00D+00
 Coeff-Com:  0.480D-05-0.462D-04-0.815D-04 0.140D-03-0.905D-04 0.231D-01
 Coeff-Com: -0.160D+00 0.114D+01
 Coeff:      0.480D-05-0.462D-04-0.815D-04 0.140D-03-0.905D-04 0.231D-01
 Coeff:     -0.160D+00 0.114D+01
 Gap=     0.504 Goal=   None    Shift=    0.000
 Gap=     0.310 Goal=   None    Shift=    0.000
 RMSDP=8.98D-08 MaxDP=1.28D-06 DE=-4.79D-11 OVMax= 8.13D-06

 Cycle   9  Pass 1  IDiag  1:
 E= -75.7304861039655     Delta-E=       -0.000000000037 Rises=F Damp=F
 DIIS: error= 6.47D-07 at cycle   9 NSaved=   9.
 NSaved= 9 IEnMin= 9 EnMin= -75.7304861039655     IErMin= 6 ErrMin= 6.47D-07
 ErrMax= 6.47D-07  0.00D+00 EMaxC= 1.00D-01 BMatC= 1.32D-11 BMatP= 1.32D-11
 IDIUse=1 WtCom= 1.00D+00 WtEn= 0.00D+00
 Coeff-Com:  0.254D-04-0.142D-03-0.363D-03-0.183D-03-0.451D-02 0.156D+00
 Coeff-Com: -0.866D+00 0.498D+01-0.326D+01
 Coeff:      0.254D-04-0.142D-03-0.363D-03-0.183D-03-0.451D-02 0.156D+00
 Coeff:     -0.866D+00 0.498D+01-0.326D+01
 Gap=     0.504 Goal=   None    Shift=    0.000
 Gap=     0.310 Goal=   None    Shift=    0.000
 RMSDP=2.38D-07 MaxDP=3.39D-06 DE=-3.67D-11 OVMax= 2.15D-05

 Cycle  10  Pass 1  IDiag  1:
 E= -75.7304861038683     Delta-E=        0.000000000097 Rises=F Damp=F
 DIIS: error= 6.47D-07 at cycle  10 NSaved=  10.
 NSaved=10 IEnMin= 9 EnMin= -75.7304861039655     IErMin= 6 ErrMin= 6.47D-07
 ErrMax= 6.47D-07  0.00D+00 EMaxC= 1.00D-01 BMatC= 1.32D-11 BMatP= 1.32D-11
 IDIUse=1 WtCom= 1.00D+00 WtEn= 0.00D+00
 Large coefficients: NSaved= 10 BigCof=   96.82 CofMax=   10.00 Det=-7.20D-17
 Inversion failed.  Reducing to  9 matrices.
 Large coefficients: NSaved=  9 BigCof=   95.83 CofMax=   10.00 Det=-7.27D-17
 Inversion failed.  Reducing to  8 matrices.
 Large coefficients: NSaved=  8 BigCof=   78.93 CofMax=   10.00 Det=-8.17D-17
 Inversion failed.  Reducing to  7 matrices.
 Large coefficients: NSaved=  7 BigCof=   78.75 CofMax=   10.00 Det=-8.17D-17
 Inversion failed.  Reducing to  6 matrices.
 Large coefficients: NSaved=  6 BigCof=   22.32 CofMax=   10.00 Det=-1.58D-16
 Inversion failed.  Reducing to  5 matrices.
 Large coefficients: NSaved=  5 BigCof=   19.99 CofMax=   10.00 Det=-1.63D-16
 Inversion failed.  Reducing to  4 matrices.
 Large coefficients: NSaved=  4 BigCof=   19.61 CofMax=   10.00 Det=-1.67D-16
 Inversion failed.  Reducing to  3 matrices.
 Large coefficients: NSaved=  3 BigCof=   19.59 CofMax=   10.00 Det=-1.83D-16
 Inversion failed.  Reducing to  2 matrices.
 Large coefficients: NSaved=  2 BigCof=   19.22 CofMax=   10.00 Det=-1.87D-16
 Coeff-Com: -0.182D+02 0.192D+02
 Coeff:     -0.182D+02 0.192D+02
 Gap=     0.504 Goal=   None    Shift=    0.000
 Gap=     0.310 Goal=   None    Shift=    0.000
 RMSDP=4.26D-06 MaxDP=6.06D-05 DE= 9.72D-11 OVMax= 3.86D-04

 Cycle  11  Pass 1  IDiag  1:
 E= -75.7304861021325     Delta-E=        0.000000001736 Rises=F Damp=F
 DIIS: error= 6.44D-07 at cycle  11 NSaved=   3.
 NSaved= 3 IEnMin= 1 EnMin= -75.7304861039655     IErMin= 3 ErrMin= 6.44D-07
 ErrMax= 6.44D-07  0.00D+00 EMaxC= 1.00D-01 BMatC= 1.31D-11 BMatP= 1.32D-11
 IDIUse=1 WtCom= 1.00D+00 WtEn= 0.00D+00
 Large coefficients: NSaved=  3 BigCof=   32.26 CofMax=   10.00 Det=-1.62D-16
 Inversion failed.  Reducing to  2 matrices.
 Coeff-Com: -0.995D+00 0.200D+01
 Coeff:     -0.995D+00 0.200D+01
 Gap=     0.504 Goal=   None    Shift=    0.000
 Gap=     0.310 Goal=   None    Shift=    0.000
 RMSDP=4.16D-06 MaxDP=5.92D-05 DE= 1.74D-09 OVMax= 3.77D-04

 Cycle  12  Pass 1  IDiag  1:
 E= -75.7304861004438     Delta-E=        0.000000001689 Rises=F Damp=F
 DIIS: error= 6.41D-07 at cycle  12 NSaved=   3.
 NSaved= 3 IEnMin= 1 EnMin= -75.7304861038683     IErMin= 3 ErrMin= 6.41D-07
 ErrMax= 6.41D-07  0.00D+00 EMaxC= 1.00D-01 BMatC= 1.31D-11 BMatP= 1.31D-11
 IDIUse=1 WtCom= 1.00D+00 WtEn= 0.00D+00
 Large coefficients: NSaved=  3 BigCof=   15.09 CofMax=   10.00 Det=-5.58D-15
 Inversion failed.  Reducing to  2 matrices.
 Coeff-Com:  0.318D+00 0.682D+00
 Coeff:      0.318D+00 0.682D+00
 Gap=     0.504 Goal=   None    Shift=    0.000
 Gap=     0.310 Goal=   None    Shift=    0.000
 RMSDP=1.40D-06 MaxDP=1.99D-05 DE= 1.69D-09 OVMax= 1.27D-04

 Cycle  13  Pass 1  IDiag  1:
 E= -75.7304861010103     Delta-E=       -0.000000000566 Rises=F Damp=F
 DIIS: error= 6.42D-07 at cycle  13 NSaved=   3.
 NSaved= 3 IEnMin= 1 EnMin= -75.7304861021325     IErMin= 2 ErrMin= 6.41D-07
 ErrMax= 6.42D-07  0.00D+00 EMaxC= 1.00D-01 BMatC= 1.30D-11 BMatP= 1.31D-11
 IDIUse=1 WtCom= 1.00D+00 WtEn= 0.00D+00
 Coeff-Com: -0.746D+01-0.618D-01 0.852D+01
 Coeff:     -0.746D+01-0.618D-01 0.852D+01
 Gap=     0.504 Goal=   None    Shift=    0.000
 Gap=     0.310 Goal=   None    Shift=    0.000
 RMSDP=2.05D-05 MaxDP=2.91D-04 DE=-5.66D-10 OVMax= 1.85D-03

 Cycle  14  Pass 1  IDiag  1:
 E= -75.7304860928213     Delta-E=        0.000000008189 Rises=F Damp=F
 DIIS: error= 6.26D-07 at cycle  14 NSaved=   4.
 NSaved= 4 IEnMin= 1 EnMin= -75.7304861021325     IErMin= 4 ErrMin= 6.26D-07
 ErrMax= 6.26D-07  0.00D+00 EMaxC= 1.00D-01 BMatC= 1.38D-11 BMatP= 1.30D-11
 IDIUse=1 WtCom= 1.00D+00 WtEn= 0.00D+00
 Large coefficients: NSaved=  4 BigCof=   16.25 CofMax=   10.00 Det=-3.45D-15
 Inversion failed.  Reducing to  3 matrices.
 Large coefficients: NSaved=  3 BigCof=   16.09 CofMax=   10.00 Det=-3.75D-15
 Inversion failed.  Reducing to  2 matrices.
 Coeff-Com:  0.798D+00 0.202D+00
 Coeff:      0.798D+00 0.202D+00
 Gap=     0.504 Goal=   None    Shift=    0.000
 Gap=     0.310 Goal=   None    Shift=    0.000
 RMSDP=1.64D-05 MaxDP=2.33D-04 DE= 8.19D-09 OVMax= 1.49D-03

 Cycle  15  Pass 1  IDiag  1:
 E= -75.7304860993730     Delta-E=       -0.000000006552 Rises=F Damp=F
 DIIS: error= 6.39D-07 at cycle  15 NSaved=   3.
 NSaved= 3 IEnMin= 1 EnMin= -75.7304861010103     IErMin= 2 ErrMin= 6.26D-07
 ErrMax= 6.39D-07  0.00D+00 EMaxC= 1.00D-01 BMatC= 1.30D-11 BMatP= 1.30D-11
 IDIUse=1 WtCom= 1.00D+00 WtEn= 0.00D+00
 Coeff-Com: -0.152D+01 0.644D+00 0.188D+01
 Coeff:     -0.152D+01 0.644D+00 0.188D+01
 Gap=     0.504 Goal=   None    Shift=    0.000
 Gap=     0.310 Goal=   None    Shift=    0.000
 RMSDP=1.66D-05 MaxDP=2.36D-04 DE=-6.55D-09 OVMax= 1.51D-03

 Cycle  16  Pass 1  IDiag  1:
 E= -75.7304860927287     Delta-E=        0.000000006644 Rises=F Damp=F
 DIIS: error= 6.26D-07 at cycle  16 NSaved=   4.
 NSaved= 4 IEnMin= 1 EnMin= -75.7304861010103     IErMin= 4 ErrMin= 6.26D-07
 ErrMax= 6.26D-07  0.00D+00 EMaxC= 1.00D-01 BMatC= 1.26D-11 BMatP= 1.30D-11
 IDIUse=1 WtCom= 1.00D+00 WtEn= 0.00D+00
 Large coefficients: NSaved=  4 BigCof=   26.28 CofMax=   10.00 Det=-8.79D-15
 Inversion failed.  Reducing to  3 matrices.
 Coeff-Com: -0.925D+01 0.491D+01 0.534D+01
 Coeff:     -0.925D+01 0.491D+01 0.534D+01
 Gap=     0.504 Goal=   None    Shift=    0.000
 Gap=     0.310 Goal=   None    Shift=    0.000
 RMSDP=1.10D-04 MaxDP=1.55D-03 DE= 6.64D-09 OVMax= 9.93D-03

 Cycle  17  Pass 1  IDiag  1:
 E= -75.7304860523475     Delta-E=        0.000000040381 Rises=F Damp=F
 DIIS: error= 4.24D-06 at cycle  17 NSaved=   4.
 NSaved= 4 IEnMin= 1 EnMin= -75.7304861010103     IErMin= 3 ErrMin= 6.26D-07
 ErrMax= 4.24D-06  0.00D+00 EMaxC= 1.00D-01 BMatC= 1.22D-09 BMatP= 1.26D-11
 IDIUse=1 WtCom= 1.00D+00 WtEn= 0.00D+00
 Large coefficients: NSaved=  4 BigCof=   27.20 CofMax=   10.00 Det=-8.60D-15
 Inversion failed.  Reducing to  3 matrices.
 Large coefficients: NSaved=  3 BigCof=   11.92 CofMax=   10.00 Det=-2.52D-14
 Inversion failed.  Reducing to  2 matrices.
 Coeff-Com:  0.101D+01-0.118D-01
 Coeff:      0.101D+01-0.118D-01
 Gap=     0.504 Goal=   None    Shift=    0.000
 Gap=     0.310 Goal=   None    Shift=    0.000
 RMSDP=1.11D-04 MaxDP=1.57D-03 DE= 4.04D-08 OVMax= 1.01D-02

 Cycle  18  Pass 1  IDiag  1:
 E= -75.7304860932697     Delta-E=       -0.000000040922 Rises=F Damp=F
 DIIS: error= 6.27D-07 at cycle  18 NSaved=   3.
 NSaved= 3 IEnMin= 3 EnMin= -75.7304860932697     IErMin= 1 ErrMin= 6.26D-07
 ErrMax= 6.27D-07  0.00D+00 EMaxC= 1.00D-01 BMatC= 1.25D-11 BMatP= 1.26D-11
 IDIUse=1 WtCom= 1.00D+00 WtEn= 0.00D+00
 Coeff-Com:  0.551D+00-0.965D-02 0.458D+00
 Coeff:      0.551D+00-0.965D-02 0.458D+00
 Gap=     0.504 Goal=   None    Shift=    0.000
 Gap=     0.310 Goal=   None    Shift=    0.000
 RMSDP=3.90D-07 MaxDP=5.54D-06 DE=-4.09D-08 OVMax= 3.53D-05

 Cycle  19  Pass 1  IDiag  1:
 E= -75.7304860934243     Delta-E=       -0.000000000155 Rises=F Damp=F
 DIIS: error= 6.27D-07 at cycle  19 NSaved=   4.
 NSaved= 4 IEnMin= 4 EnMin= -75.7304860934243     IErMin= 1 ErrMin= 6.26D-07
 ErrMax= 6.27D-07  0.00D+00 EMaxC= 1.00D-01 BMatC= 1.25D-11 BMatP= 1.25D-11
 IDIUse=1 WtCom= 1.00D+00 WtEn= 0.00D+00
 Large coefficients: NSaved=  4 BigCof=   26.75 CofMax=   10.00 Det=-9.61D-16
 Inversion failed.  Reducing to  3 matrices.
 Coeff-Com: -0.250D+00-0.476D+00 0.173D+01
 Coeff:     -0.250D+00-0.476D+00 0.173D+01
 Gap=     0.504 Goal=   None    Shift=    0.000
 Gap=     0.310 Goal=   None    Shift=    0.000
 RMSDP=7.00D-07 MaxDP=9.94D-06 DE=-1.55D-10 OVMax= 6.34D-05

 Cycle  20  Pass 1  IDiag  1:
 E= -75.7304860937016     Delta-E=       -0.000000000277 Rises=F Damp=F
 DIIS: error= 6.28D-07 at cycle  20 NSaved=   4.
 NSaved= 4 IEnMin= 4 EnMin= -75.7304860937016     IErMin= 1 ErrMin= 6.26D-07
 ErrMax= 6.28D-07  0.00D+00 EMaxC= 1.00D-01 BMatC= 1.25D-11 BMatP= 1.25D-11
 IDIUse=1 WtCom= 1.00D+00 WtEn= 0.00D+00
 Large coefficients: NSaved=  4 BigCof=   25.04 CofMax=   10.00 Det=-3.43D-16
 Inversion failed.  Reducing to  3 matrices.
 Coeff-Com: -0.877D-01 0.257D+00 0.831D+00
 Coeff:     -0.877D-01 0.257D+00 0.831D+00
 Gap=     0.504 Goal=   None    Shift=    0.000
 Gap=     0.310 Goal=   None    Shift=    0.000
 RMSDP=1.05D-08 MaxDP=1.48D-07 DE=-2.77D-10 OVMax= 9.49D-07

 Cycle  21  Pass 1  IDiag  1:
 E= -75.7304860936974     Delta-E=        0.000000000004 Rises=F Damp=F
 DIIS: error= 6.28D-07 at cycle  21 NSaved=   4.
 NSaved= 4 IEnMin= 3 EnMin= -75.7304860937016     IErMin= 1 ErrMin= 6.27D-07
 ErrMax= 6.28D-07  0.00D+00 EMaxC= 1.00D-01 BMatC= 1.25D-11 BMatP= 1.25D-11
 IDIUse=1 WtCom= 1.00D+00 WtEn= 0.00D+00
 Coeff-Com:  0.470D+01-0.514D+01-0.844D+01 0.988D+01
 Coeff:      0.470D+01-0.514D+01-0.844D+01 0.988D+01
 Gap=     0.504 Goal=   None    Shift=    0.000
 Gap=     0.310 Goal=   None    Shift=    0.000
 RMSDP=1.54D-06 MaxDP=2.19D-05 DE= 4.21D-12 OVMax= 1.40D-04

 Cycle  22  Pass 1  IDiag  1:
 E= -75.7304860930860     Delta-E=        0.000000000611 Rises=F Damp=F
 DIIS: error= 6.26D-07 at cycle  22 NSaved=   5.
 NSaved= 5 IEnMin= 3 EnMin= -75.7304860937016     IErMin= 5 ErrMin= 6.26D-07
 ErrMax= 6.26D-07  0.00D+00 EMaxC= 1.00D-01 BMatC= 1.24D-11 BMatP= 1.25D-11
 IDIUse=1 WtCom= 1.00D+00 WtEn= 0.00D+00
 Large coefficients: NSaved=  5 BigCof=   27.79 CofMax=   10.00 Det=-1.36D-16
 Inversion failed.  Reducing to  4 matrices.
 Large coefficients: NSaved=  4 BigCof=   19.41 CofMax=   10.00 Det=-8.36D-16
 Inversion failed.  Reducing to  3 matrices.
 Large coefficients: NSaved=  3 BigCof=   14.44 CofMax=   10.00 Det=-1.09D-15
 Inversion failed.  Reducing to  2 matrices.
 Large coefficients: NSaved=  2 BigCof=   11.96 CofMax=   10.00 Det=-2.02D-15
 Coeff-Com: -0.110D+02 0.120D+02
 Coeff:     -0.110D+02 0.120D+02
 Gap=     0.504 Goal=   None    Shift=    0.000
 Gap=     0.310 Goal=   None    Shift=    0.000
 RMSDP=1.69D-05 MaxDP=2.39D-04 DE= 6.11D-10 OVMax= 1.53D-03

 Cycle  23  Pass 1  IDiag  1:
 E= -75.7304860864892     Delta-E=        0.000000006597 Rises=F Damp=F
 DIIS: error= 6.13D-07 at cycle  23 NSaved=   3.
 NSaved= 3 IEnMin= 1 EnMin= -75.7304860936974     IErMin= 3 ErrMin= 6.13D-07
 ErrMax= 6.13D-07  0.00D+00 EMaxC= 1.00D-01 BMatC= 1.23D-11 BMatP= 1.24D-11
 IDIUse=1 WtCom= 1.00D+00 WtEn= 0.00D+00
 Large coefficients: NSaved=  3 BigCof=   15.29 CofMax=   10.00 Det=-1.82D-15
 Inversion failed.  Reducing to  2 matrices.
 Coeff-Com:  0.429D+00 0.571D+00
 Coeff:      0.429D+00 0.571D+00
 Gap=     0.504 Goal=   None    Shift=    0.000
 Gap=     0.310 Goal=   None    Shift=    0.000
 RMSDP=7.30D-06 MaxDP=1.04D-04 DE= 6.60D-09 OVMax= 6.62D-04

 Cycle  24  Pass 1  IDiag  1:
 E= -75.7304860893302     Delta-E=       -0.000000002841 Rises=F Damp=F
 DIIS: error= 6.19D-07 at cycle  24 NSaved=   3.
 NSaved= 3 IEnMin= 1 EnMin= -75.7304860930860     IErMin= 2 ErrMin= 6.13D-07
 ErrMax= 6.19D-07  0.00D+00 EMaxC= 1.00D-01 BMatC= 1.22D-11 BMatP= 1.23D-11
 IDIUse=1 WtCom= 1.00D+00 WtEn= 0.00D+00
 Coeff-Com: -0.770D+01 0.219D+01 0.651D+01
 Coeff:     -0.770D+01 0.219D+01 0.651D+01
 Gap=     0.504 Goal=   None    Shift=    0.000
 Gap=     0.310 Goal=   None    Shift=    0.000
 RMSDP=8.94D-05 MaxDP=1.26D-03 DE=-2.84D-09 OVMax= 8.10D-03

 Cycle  25  Pass 1  IDiag  1:
 E= -75.7304860563936     Delta-E=        0.000000032937 Rises=F Damp=F
 DIIS: error= 2.46D-06 at cycle  25 NSaved=   4.
 NSaved= 4 IEnMin= 1 EnMin= -75.7304860930860     IErMin= 2 ErrMin= 6.13D-07
 ErrMax= 2.46D-06  0.00D+00 EMaxC= 1.00D-01 BMatC= 4.38D-10 BMatP= 1.22D-11
 IDIUse=1 WtCom= 1.00D+00 WtEn= 0.00D+00
 Coeff-Com: -0.783D+01 0.443D+01 0.450D+01-0.944D-01
 Coeff:     -0.783D+01 0.443D+01 0.450D+01-0.944D-01
 Gap=     0.504 Goal=   None    Shift=    0.000
 Gap=     0.310 Goal=   None    Shift=    0.000
 RMSDP=9.16D-06 MaxDP=1.29D-04 DE= 3.29D-08 OVMax= 8.30D-04

 Cycle  26  Pass 1  IDiag  1:
 E= -75.7304860532288     Delta-E=        0.000000003165 Rises=F Damp=F
 DIIS: error= 3.16D-06 at cycle  26 NSaved=   5.
 NSaved= 5 IEnMin= 1 EnMin= -75.7304860930860     IErMin= 2 ErrMin= 6.13D-07
 ErrMax= 3.16D-06  0.00D+00 EMaxC= 1.00D-01 BMatC= 6.99D-10 BMatP= 1.22D-11
 IDIUse=1 WtCom= 1.00D+00 WtEn= 0.00D+00
 Large coefficients: NSaved=  5 BigCof=   21.95 CofMax=   10.00 Det=-1.23D-14
 Inversion failed.  Reducing to  4 matrices.
 Large coefficients: NSaved=  4 BigCof=   15.99 CofMax=   10.00 Det=-1.52D-14
 Inversion failed.  Reducing to  3 matrices.
 Coeff-Com: -0.409D+00 0.664D+01-0.523D+01
 Coeff:     -0.409D+00 0.664D+01-0.523D+01
 Gap=     0.504 Goal=   None    Shift=    0.000
 Gap=     0.310 Goal=   None    Shift=    0.000
 RMSDP=1.67D-05 MaxDP=2.35D-04 DE= 3.16D-09 OVMax= 1.51D-03

 Cycle  27  Pass 1  IDiag  1:
 E= -75.7304860590468     Delta-E=       -0.000000005818 Rises=F Damp=F
 DIIS: error= 1.25D-06 at cycle  27 NSaved=   4.
 NSaved= 4 IEnMin= 1 EnMin= -75.7304860930860     IErMin= 1 ErrMin= 6.26D-07
 ErrMax= 1.25D-06  0.00D+00 EMaxC= 1.00D-01 BMatC= 1.18D-10 BMatP= 1.24D-11
 IDIUse=1 WtCom= 1.00D+00 WtEn= 0.00D+00
 Large coefficients: NSaved=  4 BigCof=   12.94 CofMax=   10.00 Det=-2.70D-14
 Inversion failed.  Reducing to  3 matrices.
 Coeff-Com:  0.622D+00-0.243D+00 0.621D+00
 Coeff:      0.622D+00-0.243D+00 0.621D+00
 Gap=     0.504 Goal=   None    Shift=    0.000
 Gap=     0.310 Goal=   None    Shift=    0.000
 RMSDP=6.10D-05 MaxDP=8.60D-04 DE=-5.82D-09 OVMax= 5.53D-03

 Cycle  28  Pass 1  IDiag  1:
 E= -75.7304860812777     Delta-E=       -0.000000022231 Rises=F Damp=F
 DIIS: error= 6.02D-07 at cycle  28 NSaved=   4.
 NSaved= 4 IEnMin= 1 EnMin= -75.7304860930860     IErMin= 4 ErrMin= 6.02D-07
 ErrMax= 6.02D-07  0.00D+00 EMaxC= 1.00D-01 BMatC= 2.16D-11 BMatP= 1.24D-11
 IDIUse=1 WtCom= 1.00D+00 WtEn= 0.00D+00
 Large coefficients: NSaved=  4 BigCof=   10.94 CofMax=   10.00 Det=-6.18D-14
 Inversion failed.  Reducing to  3 matrices.
 Coeff-Com: -0.769D+01 0.204D+01 0.666D+01
 Coeff:     -0.769D+01 0.204D+01 0.666D+01
 Gap=     0.504 Goal=   None    Shift=    0.000
 Gap=     0.310 Goal=   None    Shift=    0.000
 RMSDP=3.58D-04 MaxDP=4.96D-03 DE=-2.22D-08 OVMax= 3.24D-02

 Cycle  29  Pass 1  IDiag  1:
 E= -75.7304859663254     Delta-E=        0.000000114952 Rises=F Damp=F
 DIIS: error= 3.63D-05 at cycle  29 NSaved=   4.
 NSaved= 4 IEnMin= 1 EnMin= -75.7304860930860     IErMin= 3 ErrMin= 6.02D-07
 ErrMax= 3.63D-05  0.00D+00 EMaxC= 1.00D-01 BMatC= 9.11D-08 BMatP= 1.24D-11
 IDIUse=1 WtCom= 1.00D+00 WtEn= 0.00D+00
 Coeff-Com: -0.965D+01 0.390D+01 0.681D+01-0.632D-01
 Coeff:     -0.965D+01 0.390D+01 0.681D+01-0.632D-01
 Gap=     0.504 Goal=   None    Shift=    0.000
 Gap=     0.311 Goal=   None    Shift=    0.000
 RMSDP=1.50D-04 MaxDP=2.01D-03 DE= 1.15D-07 OVMax= 1.36D-02

 Cycle  30  Pass 1  IDiag  1:
 E= -75.7304858977944     Delta-E=        0.000000068531 Rises=F Damp=F
 DIIS: error= 7.28D-05 at cycle  30 NSaved=   5.
 NSaved= 5 IEnMin= 1 EnMin= -75.7304860930860     IErMin= 3 ErrMin= 6.02D-07
 ErrMax= 7.28D-05  0.00D+00 EMaxC= 1.00D-01 BMatC= 3.81D-07 BMatP= 1.24D-11
 IDIUse=1 WtCom= 1.00D+00 WtEn= 0.00D+00
 Large coefficients: NSaved=  5 BigCof=   10.00 CofMax=   10.00 Det=-5.61D-14
 Inversion failed.  Reducing to  4 matrices.
 Coeff-Com: -0.183D+01 0.265D+01 0.334D+00-0.150D+00
 Coeff:     -0.183D+01 0.265D+01 0.334D+00-0.150D+00
 Gap=     0.504 Goal=   None    Shift=    0.000
 Gap=     0.309 Goal=   None    Shift=    0.000
 RMSDP=4.09D-04 MaxDP=5.58D-03 DE= 6.85D-08 OVMax= 3.70D-02

 Cycle  31  Pass 1  IDiag  1:
 E= -75.7304860462260     Delta-E=       -0.000000148432 Rises=F Damp=F
 DIIS: error= 2.01D-06 at cycle  31 NSaved=   5.
 NSaved= 5 IEnMin= 1 EnMin= -75.7304860930860     IErMin= 2 ErrMin= 6.02D-07
 ErrMax= 2.01D-06  0.00D+00 EMaxC= 1.00D-01 BMatC= 3.06D-10 BMatP= 1.24D-11
 IDIUse=1 WtCom= 1.00D+00 WtEn= 0.00D+00
 Coeff-Com: -0.495D+01 0.378D+01-0.254D-01-0.303D-01 0.222D+01
 Coeff:     -0.495D+01 0.378D+01-0.254D-01-0.303D-01 0.222D+01
 Gap=     0.504 Goal=   None    Shift=    0.000
 Gap=     0.311 Goal=   None    Shift=    0.000
 RMSDP=2.47D-04 MaxDP=3.40D-03 DE=-1.48D-07 OVMax= 2.24D-02

 Cycle  32  Pass 1  IDiag  1:
 E= -75.7304859715932     Delta-E=        0.000000074633 Rises=F Damp=F
 DIIS: error= 3.22D-05 at cycle  32 NSaved=   6.
 NSaved= 6 IEnMin= 1 EnMin= -75.7304860930860     IErMin= 2 ErrMin= 6.02D-07
 ErrMax= 3.22D-05  0.00D+00 EMaxC= 1.00D-01 BMatC= 7.23D-08 BMatP= 1.24D-11
 IDIUse=1 WtCom= 1.00D+00 WtEn= 0.00D+00
 Large coefficients: NSaved=  6 BigCof=   10.07 CofMax=   10.00 Det=-5.12D-14
 Inversion failed.  Reducing to  5 matrices.
 Large coefficients: NSaved=  5 BigCof=   10.17 CofMax=   10.00 Det=-5.13D-14
 Inversion failed.  Reducing to  4 matrices.
 Coeff-Com: -0.547D+01 0.399D+01 0.260D+01-0.120D+00
 Coeff:     -0.547D+01 0.399D+01 0.260D+01-0.120D+00
 Gap=     0.504 Goal=   None    Shift=    0.000
 Gap=     0.311 Goal=   None    Shift=    0.000
 RMSDP=3.58D-05 MaxDP=4.84D-04 DE= 7.46D-08 OVMax= 3.24D-03

 Cycle  33  Pass 1  IDiag  1:
 E= -75.7304859592896     Delta-E=        0.000000012304 Rises=F Damp=F
 DIIS: error= 3.95D-05 at cycle  33 NSaved=   5.
 NSaved= 5 IEnMin= 1 EnMin= -75.7304860930860     IErMin= 2 ErrMin= 6.02D-07
 ErrMax= 3.95D-05  0.00D+00 EMaxC= 1.00D-01 BMatC= 1.09D-07 BMatP= 1.24D-11
 IDIUse=1 WtCom= 1.00D+00 WtEn= 0.00D+00
 Coeff-Com: -0.536D+01 0.395D+01 0.251D+01-0.271D-01-0.709D-01
 Coeff:     -0.536D+01 0.395D+01 0.251D+01-0.271D-01-0.709D-01
 Gap=     0.504 Goal=   None    Shift=    0.000
 Gap=     0.311 Goal=   None    Shift=    0.000
 RMSDP=7.26D-06 MaxDP=9.82D-05 DE= 1.23D-08 OVMax= 6.58D-04

 Cycle  34  Pass 1  IDiag  1:
 E= -75.7304859618733     Delta-E=       -0.000000002584 Rises=F Damp=F
 DIIS: error= 3.80D-05 at cycle  34 NSaved=   6.
 NSaved= 6 IEnMin= 1 EnMin= -75.7304860930860     IErMin= 2 ErrMin= 6.02D-07
 ErrMax= 3.80D-05  0.00D+00 EMaxC= 1.00D-01 BMatC= 1.01D-07 BMatP= 1.24D-11
 IDIUse=1 WtCom= 1.00D+00 WtEn= 0.00D+00
 Large coefficients: NSaved=  6 BigCof=  344.10 CofMax=   10.00 Det=-5.23D-17
 Inversion failed.  Reducing to  5 matrices.
 Coeff-Com: -0.542D+01 0.397D+01 0.256D+01 0.212D+00-0.320D+00
 Coeff:     -0.542D+01 0.397D+01 0.256D+01 0.212D+00-0.320D+00
 Gap=     0.504 Goal=   None    Shift=    0.000
 Gap=     0.311 Goal=   None    Shift=    0.000
 RMSDP=4.37D-06 MaxDP=5.91D-05 DE=-2.58D-09 OVMax= 3.96D-04

 Cycle  35  Pass 1  IDiag  1:
 E= -75.7304859603329     Delta-E=        0.000000001540 Rises=F Damp=F
[...]
 NSaved= 7 IEnMin= 7 EnMin= -75.4215822200043     IErMin= 7 ErrMin= 3.12D-05
 ErrMax= 3.12D-05  0.00D+00 EMaxC= 1.00D-01 BMatC= 3.79D-08 BMatP= 2.72D-07
 IDIUse=1 WtCom= 1.00D+00 WtEn= 0.00D+00
 Coeff-Com:  0.139D-03-0.417D-03-0.161D-01 0.248D-01 0.170D+00-0.927D+00
 Coeff-Com:  0.175D+01
 Coeff:      0.139D-03-0.417D-03-0.161D-01 0.248D-01 0.170D+00-0.927D+00
 Coeff:      0.175D+01
 Gap=     0.592 Goal=   None    Shift=    0.000
 Gap=     0.545 Goal=   None    Shift=    0.000
 RMSDP=3.08D-06 MaxDP=7.30D-05 DE=-2.55D-07 OVMax= 1.87D-04

 Cycle   8  Pass 1  IDiag  1:
 Density matrix breaks symmetry, PCut= 1.00D-07
 Density matrix has no symmetry -- integrals replicated.
 E= -75.4215822603180     Delta-E=       -0.000000040314 Rises=F Damp=F
 DIIS: error= 7.14D-06 at cycle   8 NSaved=   8.
 NSaved= 8 IEnMin= 8 EnMin= -75.4215822603180     IErMin= 8 ErrMin= 7.14D-06
 ErrMax= 7.14D-06  0.00D+00 EMaxC= 1.00D-01 BMatC= 3.26D-09 BMatP= 3.79D-08
 IDIUse=1 WtCom= 1.00D+00 WtEn= 0.00D+00
 Coeff-Com: -0.171D-03 0.184D-02-0.234D-02-0.150D-01 0.176D-01 0.115D+00
 Coeff-Com: -0.514D+00 0.140D+01
 Coeff:     -0.171D-03 0.184D-02-0.234D-02-0.150D-01 0.176D-01 0.115D+00
 Coeff:     -0.514D+00 0.140D+01
 Gap=     0.592 Goal=   None    Shift=    0.000
 Gap=     0.545 Goal=   None    Shift=    0.000
 RMSDP=7.61D-07 MaxDP=1.98D-05 DE=-4.03D-08 OVMax= 4.48D-05

 Cycle   9  Pass 1  IDiag  1:
 Density matrix breaks symmetry, PCut= 1.00D-07
 Density matrix has no symmetry -- integrals replicated.
 E= -75.4215822631070     Delta-E=       -0.000000002789 Rises=F Damp=F
 DIIS: error= 2.00D-06 at cycle   9 NSaved=   9.
 NSaved= 9 IEnMin= 9 EnMin= -75.4215822631070     IErMin= 9 ErrMin= 2.00D-06
 ErrMax= 2.00D-06  0.00D+00 EMaxC= 1.00D-01 BMatC= 4.37D-10 BMatP= 3.26D-09
 IDIUse=1 WtCom= 1.00D+00 WtEn= 0.00D+00
 Coeff-Com:  0.754D-04-0.877D-03 0.287D-02 0.449D-02-0.278D-01 0.512D-01
 Coeff-Com:  0.659D-01-0.762D+00 0.167D+01
 Coeff:      0.754D-04-0.877D-03 0.287D-02 0.449D-02-0.278D-01 0.512D-01
 Coeff:      0.659D-01-0.762D+00 0.167D+01
 Gap=     0.592 Goal=   None    Shift=    0.000
 Gap=     0.545 Goal=   None    Shift=    0.000
 RMSDP=2.69D-07 MaxDP=6.79D-06 DE=-2.79D-09 OVMax= 1.31D-05

 Cycle  10  Pass 1  IDiag  1:
 Density matrix breaks symmetry, PCut= 1.00D-07
 Density matrix has no symmetry -- integrals replicated.
 E= -75.4215822634626     Delta-E=       -0.000000000356 Rises=F Damp=F
 DIIS: error= 4.97D-07 at cycle  10 NSaved=  10.
 NSaved=10 IEnMin=10 EnMin= -75.4215822634626     IErMin=10 ErrMin= 4.97D-07
 ErrMax= 4.97D-07  0.00D+00 EMaxC= 1.00D-01 BMatC= 1.90D-11 BMatP= 4.37D-10
 IDIUse=1 WtCom= 1.00D+00 WtEn= 0.00D+00
 Coeff-Com: -0.180D-04 0.206D-03-0.889D-03-0.491D-03 0.798D-02-0.226D-01
 Coeff-Com: -0.600D-03 0.215D+00-0.680D+00 0.148D+01
 Coeff:     -0.180D-04 0.206D-03-0.889D-03-0.491D-03 0.798D-02-0.226D-01
 Coeff:     -0.600D-03 0.215D+00-0.680D+00 0.148D+01
 Gap=     0.591 Goal=   None    Shift=    0.000
 Gap=     0.545 Goal=   None    Shift=    0.000
 RMSDP=5.19D-08 MaxDP=1.32D-06 DE=-3.56D-10 OVMax= 2.81D-06

 Cycle  11  Pass 1  IDiag  1:
 Density matrix breaks symmetry, PCut= 1.00D-07
 Density matrix has no symmetry -- integrals replicated.
 E= -75.4215822634764     Delta-E=       -0.000000000014 Rises=F Damp=F
 DIIS: error= 5.34D-08 at cycle  11 NSaved=  11.
 NSaved=11 IEnMin=11 EnMin= -75.4215822634764     IErMin=11 ErrMin= 5.34D-08
 ErrMax= 5.34D-08  0.00D+00 EMaxC= 1.00D-01 BMatC= 3.22D-13 BMatP= 1.90D-11
 IDIUse=1 WtCom= 1.00D+00 WtEn= 0.00D+00
 Coeff-Com:  0.357D-05-0.439D-04 0.257D-03-0.690D-04-0.203D-02 0.724D-02
 Coeff-Com: -0.467D-02-0.456D-01 0.175D+00-0.482D+00 0.135D+01
 Coeff:      0.357D-05-0.439D-04 0.257D-03-0.690D-04-0.203D-02 0.724D-02
 Coeff:     -0.467D-02-0.456D-01 0.175D+00-0.482D+00 0.135D+01
 Gap=     0.591 Goal=   None    Shift=    0.000
 Gap=     0.545 Goal=   None    Shift=    0.000
 RMSDP=5.20D-09 MaxDP=8.87D-08 DE=-1.38D-11 OVMax= 3.71D-07

 Density matrix breaks symmetry, PCut= 1.00D-07
 Density matrix has no symmetry -- integrals replicated.
 SCF Done:  E(UHF) =  -75.4215822635     A.U. after   11 cycles
            NFock= 11  Conv=0.52D-08     -V/T= 2.0010
 <Sx>= 0.0000 <Sy>= 0.0000 <Sz>= 0.5000 <S**2>= 0.7571 S= 0.5035
 <L.S>= 0.000000000000E+00
 KE= 7.534879424214D+01 PE=-1.879896737144D+02 EE= 3.286110055112D+01
 Annihilation of the first spin contaminant:
 S**2 before annihilation     0.7571,   after     0.7500
 Leave Link  502 at Fri Sep 25 11:23:55 2020, MaxMem=   327680000 cpu:               5.5 elap:               0.8
 (Enter /applis/site/cecic/gaussian16/B.01/nehalem/g16/l801.exe)
 Windowed orbitals will be sorted by symmetry type.
 ExpMin= 2.53D-02 ExpMax= 1.53D+04 ExpMxC= 5.22D+02 IAcc=3 IRadAn=         5 AccDes= 0.00D+00
 HarFok:  IExCor=  205 AccDes= 0.00D+00 IRadAn=         5 IDoV=-2 UseB2=F ITyADJ=14
 ICtDFT= 12500011 ScaDFX=  1.000000  1.000000  1.000000  1.000000
 Largest valence mixing into a core orbital is  9.49D-05
 Largest core mixing into a valence orbital is  1.46D-05
 Largest valence mixing into a core orbital is  1.39D-04
 Largest core mixing into a valence orbital is  3.00D-05
 Range of M.O.s used for correlation:     2    69
 NBasis=    69 NAE=     5 NBE=     4 NFC=     1 NFV=     0
 NROrb=     68 NOA=     4 NOB=     3 NVA=    64 NVB=    65

 **** Warning!!: The largest alpha MO coefficient is  0.13537617D+02


 **** Warning!!: The largest beta MO coefficient is  0.13950683D+02

 Leave Link  801 at Fri Sep 25 11:23:56 2020, MaxMem=   327680000 cpu:               1.6 elap:               0.4
 (Enter /applis/site/cecic/gaussian16/B.01/nehalem/g16/l804.exe)
 Open-shell transformation, MDV=   327680000 ITran=4 ISComp=1.
 Unit  1 TFree=         24942 TCopy=        298390.
 Semi-Direct transformation.
 ModeAB=           2 MOrb=             4 LenV=     327358014
 LASXX=       595285 LTotXX=      595285 LenRXX=      595285
 LTotAB=      624036 MaxLAS=      881280 LenRXY=      881280
 NonZer=     1190570 LenScr=     2359296 LnRSAI=           0
 LnScr1=           0 LExtra=           0 Total=      3835861
 MaxDsk=          -1 SrtSym=           F ITran=            4
 DoSDTr:  NPSUse=  8
 JobTyp=1 Pass  1:  I=   1 to   4.
 (rs|ai) integrals will be sorted in core.
 Complete sort for first half transformation.
 First half transformation complete.
 Complete sort for second half transformation.
 Second half transformation complete.
 ModeAB=           2 MOrb=             3 LenV=     327358014
 LASXX=       450456 LTotXX=      450456 LenRXX=      660960
 LTotAB=      418080 MaxLAS=      660960 LenRXY=      418080
 NonZer=      900912 LenScr=     1966080 LnRSAI=           0
 LnScr1=           0 LExtra=           0 Total=      3045120
 MaxDsk=          -1 SrtSym=           F ITran=            4
 DoSDTr:  NPSUse=  8
 JobTyp=2 Pass  1:  I=   1 to   3.
 (rs|ai) integrals will be sorted in core.
 Complete sort for first half transformation.
 First half transformation complete.
 Complete sort for second half transformation.
 Second half transformation complete.
 SymMOI:  orbitals are not symmetric.
 Spin components of T(2) and E(2):
     alpha-alpha T2 =       0.7302301118D-02 E2=     -0.3268253579D-01
     alpha-beta  T2 =       0.3461138381D-01 E2=     -0.1568736689D+00
     beta-beta   T2 =       0.3737497558D-02 E2=     -0.1519537004D-01
 ANorm=    0.1022570869D+01
 E2 =    -0.2047515748D+00 EUMP2 =    -0.75626333838227D+02
 (S**2,0)=  0.75711D+00           (S**2,1)=  0.75131D+00
 E(PUHF)=      -0.75424933935D+02        E(PMP2)=      -0.75628322948D+02
 Leave Link  804 at Fri Sep 25 11:23:57 2020, MaxMem=   327680000 cpu:               5.6 elap:               1.0
 (Enter /applis/site/cecic/gaussian16/B.01/nehalem/g16/l913.exe)
 CIDS:  MDV=   327680000.
 Frozen-core window:  NFC=   1 NFV=   0.
 IFCWin=0 IBDFC=1 NFBD=     0     0 NFCmp=     0     0 NFFFC=     0     0
 Using original routines for 1st iteration.
 Using DD4UQ or CC4UQ for 2nd and later iterations.
 Keep R2 and R3 ints in memory in symmetry-blocked form, NReq=6833385.
 FoFCou: FMM=F IPFlag=           0 FMFlag=           0 FMFlg1=           0
         NFxFlg=           0 DoJE=F BraDBF=F KetDBF=F FulRan=T
         wScrn=  0.000000 ICntrl=       600 IOpCl=  0 I1Cent=           0 NGrid=           0
         NMat0=    1 NMatS0=   2415 NMatT0=    0 NMatD0=    1 NMtDS0=    0 NMtDT0=    0
 Petite list used in FoFCou.
 CIDS: In Core Option IDoMem=           1.
 CCSD(T)
 =======
 Iterations=  50 Convergence= 0.100D-06
 Produce multiple copies of IABC intergrals
 Iteration Nr.   1
 **********************
 DD1Dir will call FoFMem   1 times, MxPair=        34
 NAB=    12 NAA=     6 NBB=     3.
 E(PMP3)=      -0.75639041839D+02
 MP4(R+Q)=  0.32351541D-02
 Maximum subspace dimension=  5
 A-vector RMS=  2.8848732D-03 Max=  9.8688206D-03 conv= 1.00D-05.
 RLE energy=       -0.2134154299
 E3=       -0.11566304D-01        EUMP3=      -0.75637900142D+02
 E4(DQ)=   -0.14891522D-03        UMP4(DQ)=   -0.75638049057D+02
 E4(SDQ)=  -0.14198311D-02        UMP4(SDQ)=  -0.75639319973D+02
 VARIATIONAL ENERGIES WITH THE FIRST-ORDER WAVEFUNCTION:
 DE(Corr)= -0.21306371     E(Corr)=     -75.634645976    
 NORM(A)=   0.10251099D+01
 Iteration Nr.   2
 **********************
 DD1Dir will call FoFMem   1 times, MxPair=        34
 NAB=    12 NAA=     6 NBB=     3.
 A-vector RMS=  4.8897532D-04 Max=  1.8449670D-03 conv= 1.00D-05.
 RLE energy=       -0.2176920239
 DE(Corr)= -0.21690013     E(CORR)=     -75.638482398     Delta=-3.84D-03
 NORM(A)=   0.10269725D+01
 Iteration Nr.   3
 **********************
 DD1Dir will call FoFMem   1 times, MxPair=        34
 NAB=    12 NAA=     6 NBB=     3.
 A-vector RMS=  4.0959246D-04 Max=  1.9313600D-03 conv= 1.00D-05.
 RLE energy=       -0.2180274729
 DE(Corr)= -0.21766122     E(CORR)=     -75.639243485     Delta=-7.61D-04
 NORM(A)=   0.10274717D+01
 Iteration Nr.   4
 **********************
 DD1Dir will call FoFMem   1 times, MxPair=        34
 NAB=    12 NAA=     6 NBB=     3.
 A-vector RMS=  9.1947452D-05 Max=  6.1224517D-04 conv= 1.00D-05.
 RLE energy=       -0.2180992802
 DE(Corr)= -0.21804742     E(CORR)=     -75.639629681     Delta=-3.86D-04
 NORM(A)=   0.10276401D+01
 Iteration Nr.   5
 **********************
 DD1Dir will call FoFMem   1 times, MxPair=        34
 NAB=    12 NAA=     6 NBB=     3.
 A-vector RMS=  3.2092740D-05 Max=  3.1526723D-04 conv= 1.00D-05.
 RLE energy=       -0.2181183549
 DE(Corr)= -0.21810169     E(CORR)=     -75.639683954     Delta=-5.43D-05
 NORM(A)=   0.10276816D+01
 Iteration Nr.   6
 **********************
 DD1Dir will call FoFMem   1 times, MxPair=        34
 NAB=    12 NAA=     6 NBB=     3.
 A-vector RMS=  1.4404816D-05 Max=  9.6595449D-05 conv= 1.00D-05.
 RLE energy=       -0.2181070798
 DE(Corr)= -0.21811352     E(CORR)=     -75.639695783     Delta=-1.18D-05
 NORM(A)=   0.10276809D+01
 Iteration Nr.   7
 **********************
 DD1Dir will call FoFMem   1 times, MxPair=        34
 NAB=    12 NAA=     6 NBB=     3.
 A-vector RMS=  6.5802510D-06 Max=  4.2326234D-05 conv= 1.00D-05.
 RLE energy=       -0.2181140184
 DE(Corr)= -0.21811433     E(CORR)=     -75.639696596     Delta=-8.13D-07
 NORM(A)=   0.10276820D+01
 Iteration Nr.   8
 **********************
 DD1Dir will call FoFMem   1 times, MxPair=        34
 NAB=    12 NAA=     6 NBB=     3.
 A-vector RMS=  2.1626971D-06 Max=  1.5499829D-05 conv= 1.00D-05.
 RLE energy=       -0.2181138471
 DE(Corr)= -0.21811399     E(CORR)=     -75.639696251     Delta= 3.44D-07
 NORM(A)=   0.10276819D+01
 Iteration Nr.   9
 **********************
 DD1Dir will call FoFMem   1 times, MxPair=        34
 NAB=    12 NAA=     6 NBB=     3.
 A-vector RMS=  6.5231955D-07 Max=  4.6708165D-06 conv= 1.00D-05.
 RLE energy=       -0.2181145877
 DE(Corr)= -0.21811448     E(CORR)=     -75.639696745     Delta=-4.94D-07
 NORM(A)=   0.10276824D+01
 Iteration Nr.  10
 **********************
 DD1Dir will call FoFMem   1 times, MxPair=        34
 NAB=    12 NAA=     6 NBB=     3.
 A-vector RMS=  5.3910491D-07 Max=  2.4862049D-06 conv= 1.00D-05.
 RLE energy=       -0.2181146384
 DE(Corr)= -0.21811458     E(CORR)=     -75.639696840     Delta=-9.48D-08
 NORM(A)=   0.10276826D+01
 CI/CC converged in   10 iterations to DelEn=-9.48D-08 Conv= 1.00D-07 ErrA1= 5.39D-07 Conv= 1.00D-05
 Wavefunction amplitudes converged. E(Corr)=     -75.639696840    
 Largest amplitude= 2.07D-02
 Time for triples=       27.14 seconds.
 T4(CCSD)= -0.60918699D-02
 T5(CCSD)=  0.20601076D-03
 CCSD(T)= -0.75645582699D+02

 S**2, projected HF & approx projected MPn energies after annihilation of
 unwanted spin states (see manual for definitions):

 spins       (S**2,0) (S**2,1)    PUHF        PMP2        PMP3        PMP4
 annihilated
 s+1         0.74998  0.75001  -75.424934  -75.628323  -75.639042
 s+1,s+2     0.75000  0.75000  -75.424928  -75.628317  -75.639036
 s+1 to s+3  0.75000  0.75000  -75.424928  -75.628317  -75.639036

 Discarding MO integrals.
 Leave Link  913 at Fri Sep 25 11:24:05 2020, MaxMem=   327680000 cpu:              57.9 elap:               7.9
 (Enter /applis/site/cecic/gaussian16/B.01/nehalem/g16/l601.exe)
 Copying SCF densities to generalized density rwf, IOpCl= 1 IROHF=0.
 SCF density gives NOpUse=  1 NOpAll=  4.
 Marking SCF density as not fully symmetric.

 **********************************************************************

            Population analysis using the SCF Density.

 **********************************************************************

 Orbital symmetries:
 Alpha Orbitals:
       Occupied  (SG) (SG) (SG) (PI) (PI)
       Virtual   (SG) (SG) (PI) (PI) (SG) (SG) (PI) (PI) (SG) (?A)
                 (?A) (?A) (PI) (PI) (?B) (?C) (?B) (?C) (?C) (?C)
                 (?B) (SG) (?B) (PI) (PI) (?D) (?D) (PHI) (PHI)
                 (?D) (?D) (PI) (PI) (?D) (?D) (?D) (?D) (PI) (PI)
                 (SG) (PI) (DLTA) (DLTA) (PI) (PI) (PI) (SG) (SG)
                 (PI) (PI) (?E) (PHI) (PHI) (?E) (?E) (?F) (?F)
                 (?B) (?B) (?B) (?B) (SG) (?F) (SG)
 Beta  Orbitals:
       Occupied  (SG) (SG) (SG) (?A)
       Virtual   (SG) (?A) (SG) (?A) (SG) (?A) (SG) (?A) (?A) (SG)
                 (?B) (?B) (?B) (PI) (PI) (?C) (?A) (?A) (?C) (?C)
                 (?C) (SG) (?A) (?A) (PI) (PI) (SG) (?D) (PHI)
                 (PHI) (?D) (?D) (PI) (PI) (?E) (?E) (?E) (SG)
                 (PI) (PI) (SG) (DLTA) (DLTA) (PI) (PI) (PI) (PI)
                 (SG) (SG) (PI) (PI) (SG) (PHI) (PHI) (DLTA) (DLTA)
                 (DLTA) (DLTA) (PI) (PI) (PI) (PI) (SG) (SG) (SG)
 Unable to determine electronic state:  an orbital has unidentified symmetry.
 Alpha  occ. eigenvalues --  -20.64123  -1.38968  -0.68252  -0.65857  -0.56167
 Alpha virt. eigenvalues --    0.02982   0.13633   0.15281   0.16214   0.18388
 Alpha virt. eigenvalues --    0.26249   0.26861   0.27513   0.42601   0.62966
 Alpha virt. eigenvalues --    0.63868   0.64945   0.71445   0.72915   0.85392
 Alpha virt. eigenvalues --    0.87511   0.88121   0.92676   0.93778   0.93885
 Alpha virt. eigenvalues --    0.98100   0.99903   1.00765   1.49542   1.51452
 Alpha virt. eigenvalues --    1.69721   2.02671   2.04330   2.04332   2.09769
 Alpha virt. eigenvalues --    2.09826   2.25148   2.28859   2.31986   2.32080
 Alpha virt. eigenvalues --    2.44654   2.48561   2.72744   2.76585   3.57612
 Alpha virt. eigenvalues --    4.02011   4.02878   4.02902   4.07737   4.29846
 Alpha virt. eigenvalues --    4.31102   4.63567   5.10647   5.25058   5.28927
 Alpha virt. eigenvalues --    6.13412   6.43169   6.43171   6.59262   6.59432
 Alpha virt. eigenvalues --    6.96556   6.96566   7.12825   7.16272   7.17875
 Alpha virt. eigenvalues --    7.22628   7.36475   7.68563  12.87344
  Beta  occ. eigenvalues --  -20.60153  -1.23124  -0.63864  -0.51360
  Beta virt. eigenvalues --    0.03098   0.06337   0.13891   0.16435   0.18809
  Beta virt. eigenvalues --    0.21033   0.26574   0.27503   0.28947   0.43632
  Beta virt. eigenvalues --    0.64494   0.65533   0.65651   0.72733   0.73103
  Beta virt. eigenvalues --    0.87945   0.88793   0.91296   0.93780   0.93983
  Beta virt. eigenvalues --    0.94110   1.00966   1.01560   1.05974   1.51410
  Beta virt. eigenvalues --    1.51936   1.71584   2.04904   2.06237   2.06238
  Beta virt. eigenvalues --    2.17065   2.17227   2.29301   2.29789   2.33702
  Beta virt. eigenvalues --    2.33746   2.46380   2.49913   2.77035   2.77247
  Beta virt. eigenvalues --    3.58155   4.03141   4.03144   4.09557   4.13297
  Beta virt. eigenvalues --    4.30346   4.30768   4.64579   5.12898   5.29219
  Beta virt. eigenvalues --    5.29659   6.15858   6.48604   6.48604   6.63326
  Beta virt. eigenvalues --    6.63337   7.05786   7.05808   7.17035   7.18732
  Beta virt. eigenvalues --    7.24670   7.25207   7.38235   7.71475  12.90657
          Condensed to atoms (all electrons):
               1          2
     1  O    8.034512   0.238205
     2  H    0.238205   0.489078
          Atomic-Atomic Spin Densities.
               1          2
     1  O    1.024862   0.016158
     2  H    0.016158  -0.057178
 Mulliken charges and spin densities:
               1          2
     1  O   -0.272717   1.041020
     2  H    0.272717  -0.041020
 Sum of Mulliken charges =  -0.00000   1.00000
 Mulliken charges and spin densities with hydrogens summed into heavy atoms:
               1          2
     1  O   -0.000000   1.000000
 Electronic spatial extent (au):  <R**2>=             15.3952
 Charge=             -0.0000 electrons
 Dipole moment (field-independent basis, Debye):
    X=             -0.0000    Y=             -0.0000    Z=             -1.7624  Tot=              1.7624
 Quadrupole moment (field-independent basis, Debye-Ang):
   XX=             -6.5665   YY=             -5.5801   ZZ=             -4.5319
   XY=              0.4327   XZ=             -0.0000   YZ=             -0.0000
 Traceless Quadrupole moment (field-independent basis, Debye-Ang):
   XX=             -1.0070   YY=             -0.0206   ZZ=              1.0277
   XY=              0.4327   XZ=             -0.0000   YZ=             -0.0000
 Octapole moment (field-independent basis, Debye-Ang**2):
  XXX=             -0.0000  YYY=             -0.0000  ZZZ=             -2.0607  XYY=             -0.0000
  XXY=             -0.0000  XXZ=             -0.2246  XZZ=             -0.0000  YZZ=              0.0000
  YYZ=             -0.1753  XYZ=              0.0216
 Hexadecapole moment (field-independent basis, Debye-Ang**3):
 XXXX=             -5.5970 YYYY=             -4.0371 ZZZZ=             -5.3671 XXXY=              0.3425
 XXXZ=             -0.0000 YYYX=              0.3417 YYYZ=             -0.0000 ZZZX=             -0.0000
 ZZZY=             -0.0000 XXYY=             -1.6056 XXZZ=             -2.1000 YYZZ=             -1.8202
 XXYZ=             -0.0000 YYXZ=             -0.0000 ZZXY=              0.1227
 N-N= 4.358196657667D+00 E-N=-1.879896741225D+02  KE= 7.534879424214D+01
 Leave Link  601 at Fri Sep 25 11:24:06 2020, MaxMem=   327680000 cpu:               6.0 elap:               0.9
 (Enter /applis/site/cecic/gaussian16/B.01/nehalem/g16/l9999.exe)
 1\1\GINC-DAHU118\SP\UCCSD(T)-FC\Aug-CC-pVTZ\H1O1(2)\TINACCIL\25-Sep-20
 20\0\\#P CCSD(T)/aug-cc-pvtz geom=allcheck guess=read\\Title\\0,2\O,0,
 0.,0.,-0.000684564\H,0,0.,0.,0.970684564\\Version=ES64L-G16RevB.01\HF=
 -75.4215823\MP2=-75.6263338\MP3=-75.6379001\MP4D=-75.6412842\MP4DQ=-75
 .6380491\PUHF=-75.4249339\PMP2-0=-75.6283229\PMP3-0=-75.6390418\MP4SDQ
 =-75.63932\CCSD=-75.6396968\CCSD(T)=-75.6455827\S2=0.757106\S2-1=0.751
 313\S2A=0.750032\RMSD=5.203e-09\PG=C*V [C*(H1O1)]\\@


 TO BEHOLD HARMS OF OUR OWN HANDS DOING,
 WHERE NONE BESIDE US WROUGHT,
 CAUSES SHARP RUING...

                                         SOPHOCLES
 Job cpu time:       0 days  0 hours  1 minutes 40.6 seconds.
 Elapsed time:       0 days  0 hours  0 minutes 15.0 seconds.
 File lengths (MBytes):  RWF=    139 Int=      0 D2E=      0 Chk=      2 Scr=      1
 Normal termination of Gaussian 16 at Fri Sep 25 11:24:06 2020.
