 Entering Gaussian System, Link 0=g16
 Initial command:
 /applis/site/cecic/gaussian16/B.01/nehalem/g16/l1.exe "/bettik/tinaccil/g16/12192983_HCN_2/Gau-171659.inp" -scrdir="/bettik/tinaccil/g16/12192983_HCN_2/"
 Entering Link 1 = /applis/site/cecic/gaussian16/B.01/nehalem/g16/l1.exe PID=    171661.
  
 Copyright (c) 1988-2017, Gaussian, Inc.  All Rights Reserved.
  
 This is part of the Gaussian(R) 16 program.  It is based on
 the Gaussian(R) 09 system (copyright 2009, Gaussian, Inc.),
 the Gaussian(R) 03 system (copyright 2003, Gaussian, Inc.),
 the Gaussian(R) 98 system (copyright 1998, Gaussian, Inc.),
 the Gaussian(R) 94 system (copyright 1995, Gaussian, Inc.),
 the Gaussian 92(TM) system (copyright 1992, Gaussian, Inc.),
 the Gaussian 90(TM) system (copyright 1990, Gaussian, Inc.),
 the Gaussian 88(TM) system (copyright 1988, Gaussian, Inc.),
 the Gaussian 86(TM) system (copyright 1986, Carnegie Mellon
 University), and the Gaussian 82(TM) system (copyright 1983,
 Carnegie Mellon University). Gaussian is a federally registered
 trademark of Gaussian, Inc.
  
 This software contains proprietary and confidential information,
 including trade secrets, belonging to Gaussian, Inc.
  
 This software is provided under written license and may be
 used, copied, transmitted, or stored only in accord with that
 written license.
  
 The following legend is applicable only to US Government
 contracts under FAR:
  
                    RESTRICTED RIGHTS LEGEND
  
 Use, reproduction and disclosure by the US Government is
 subject to restrictions as set forth in subparagraphs (a)
 and (c) of the Commercial Computer Software - Restricted
 Rights clause in FAR 52.227-19.
  
 Gaussian, Inc.
 340 Quinnipiac St., Bldg. 40, Wallingford CT 06492
  
  
 ---------------------------------------------------------------
 Warning -- This program may not be used in any manner that
 competes with the business of Gaussian, Inc. or will provide
 assistance to any competitor of Gaussian, Inc.  The licensee
 of this program is prohibited from giving any competitor of
 Gaussian, Inc. access to this program.  By using this program,
 the user acknowledges that Gaussian, Inc. is engaged in the
 business of creating and licensing software in the field of
 computational chemistry and represents and warrants to the
 licensee that it is not a competitor of Gaussian, Inc. and that
 it will not use this program in any manner prohibited above.
 ---------------------------------------------------------------
  

 Cite this work as:
 Gaussian 16, Revision B.01,
 M. J. Frisch, G. W. Trucks, H. B. Schlegel, G. E. Scuseria, 
 M. A. Robb, J. R. Cheeseman, G. Scalmani, V. Barone, 
 G. A. Petersson, H. Nakatsuji, X. Li, M. Caricato, A. V. Marenich, 
 J. Bloino, B. G. Janesko, R. Gomperts, B. Mennucci, H. P. Hratchian, 
 J. V. Ortiz, A. F. Izmaylov, J. L. Sonnenberg, D. Williams-Young, 
 F. Ding, F. Lipparini, F. Egidi, J. Goings, B. Peng, A. Petrone, 
 T. Henderson, D. Ranasinghe, V. G. Zakrzewski, J. Gao, N. Rega, 
 G. Zheng, W. Liang, M. Hada, M. Ehara, K. Toyota, R. Fukuda, 
 J. Hasegawa, M. Ishida, T. Nakajima, Y. Honda, O. Kitao, H. Nakai, 
 T. Vreven, K. Throssell, J. A. Montgomery, Jr., J. E. Peralta, 
 F. Ogliaro, M. J. Bearpark, J. J. Heyd, E. N. Brothers, K. N. Kudin, 
 V. N. Staroverov, T. A. Keith, R. Kobayashi, J. Normand, 
 K. Raghavachari, A. P. Rendell, J. C. Burant, S. S. Iyengar, 
 J. Tomasi, M. Cossi, J. M. Millam, M. Klene, C. Adamo, R. Cammi, 
 J. W. Ochterski, R. L. Martin, K. Morokuma, O. Farkas, 
 J. B. Foresman, and D. J. Fox, Gaussian, Inc., Wallingford CT, 2016.
 
 ******************************************
 Gaussian 16:  ES64L-G16RevB.01 20-Dec-2017
                25-Sep-2020 
 ******************************************
 %nosave
 %nproc=8
 Will use up to    8 processors via shared memory.
 %mem=2gb
 %chk=input
 --------------------------------------------------------
 #P M062X/cc-pvtz nosymm opt(noeigentest) optcyc=120 freq
 --------------------------------------------------------
 1/6=120,11=1,18=20,19=15,26=3,38=1/1,3;
 2/9=110,12=2,15=1,17=6,18=5,40=1/2;
 3/5=16,6=1,11=2,25=1,30=1,71=1,74=-55/1,2,3;
 4//1;
 5/5=2,38=5/2;
 6/7=2,8=2,9=2,10=2,28=1/1;
 7/30=1/1,2,3,16;
 1/6=120,11=1,18=20,19=15,26=3/3(2);
 2/9=110,15=1/2;
 99//99;
 2/9=110,15=1/2;
 3/5=16,6=1,11=2,25=1,30=1,71=1,74=-55/1,2,3;
 4/5=5,16=3,69=1/1;
 5/5=2,38=5/2;
 7/30=1/1,2,3,16;
 1/6=120,11=1,18=20,19=15,26=3/3(-5);
 2/9=110,15=1/2;
 6/7=2,8=2,9=2,10=2,19=2,28=1/1;
 99/9=1/99;
 Leave Link    1 at Fri Sep 25 11:48:06 2020, MaxMem=   268435456 cpu:               0.7 elap:               0.2
 (Enter /applis/site/cecic/gaussian16/B.01/nehalem/g16/l101.exe)
 -----
 Title
 -----
 Symbolic Z-matrix:
 Charge =  0 Multiplicity = 1
 N
 C                    1    B1
 H                    2    B2       1    A2
       Variables:
  B1                    1.15715                  
  B2                    1.05843                  
  A2                  179.97438                  
 
 ITRead=  0  0  0
 MicOpt= -1 -1 -1
 NAtoms=      3 NQM=        3 NQMF=       0 NMMI=      0 NMMIF=      0
                NMic=       0 NMicF=      0.
                    Isotopes and Nuclear Properties:
 (Nuclear quadrupole moments (NQMom) in fm**2, nuclear magnetic moments (NMagM)
  in nuclear magnetons)

  Atom         1           2           3
 IAtWgt=          14          12           1
 AtmWgt=  14.0030740  12.0000000   1.0078250
 NucSpn=           2           0           1
 AtZEff=  -0.0000000  -0.0000000  -0.0000000
 NQMom=    2.0440000   0.0000000   0.0000000
 NMagM=    0.4037610   0.0000000   2.7928460
 AtZNuc=   7.0000000   6.0000000   1.0000000
 Leave Link  101 at Fri Sep 25 11:48:07 2020, MaxMem=   268435456 cpu:               2.5 elap:               0.6
 (Enter /applis/site/cecic/gaussian16/B.01/nehalem/g16/l103.exe)

 GradGradGradGradGradGradGradGradGradGradGradGradGradGradGradGradGradGrad
 Berny optimization.
 Initialization pass.
                           ----------------------------
                           !    Initial Parameters    !
                           ! (Angstroms and Degrees)  !
 --------------------------                            --------------------------
 ! Name  Definition              Value          Derivative Info.                !
 --------------------------------------------------------------------------------
 ! R1    R(1,2)                  1.1572         estimate D2E/DX2                !
 ! R2    R(2,3)                  1.0584         estimate D2E/DX2                !
 ! A1    L(1,2,3,-2,-1)        179.9744         estimate D2E/DX2                !
 ! A2    L(1,2,3,-1,-2)        180.0            estimate D2E/DX2                !
 --------------------------------------------------------------------------------
 Trust Radius=3.00D-01 FncErr=1.00D-07 GrdErr=1.00D-06 EigMax=2.50D+02 EigMin=1.00D-04
 Number of steps in this run=    100 maximum allowed number of steps=    100.
 GradGradGradGradGradGradGradGradGradGradGradGradGradGradGradGradGradGrad

 Leave Link  103 at Fri Sep 25 11:48:07 2020, MaxMem=   268435456 cpu:               0.3 elap:               0.1
 (Enter /applis/site/cecic/gaussian16/B.01/nehalem/g16/l202.exe)
                          Input orientation:                          
 ---------------------------------------------------------------------
 Center     Atomic      Atomic             Coordinates (Angstroms)
 Number     Number       Type             X           Y           Z
 ---------------------------------------------------------------------
      1          7           0        0.000000    0.000000    0.000000
      2          6           0        0.000000    0.000000    1.157150
      3          1           0        0.000473    0.000000    2.215580
 ---------------------------------------------------------------------
                    Distance matrix (angstroms):
                    1          2          3
     1  N    0.000000
     2  C    1.157150   0.000000
     3  H    2.215580   1.058430   0.000000
 Symmetry turned off by external request.
 Stoichiometry    CHN
 Framework group  C*V[C*(NCH)]
 Deg. of freedom     2
 Full point group                 C*V     NOp   4
 Rotational constants (GHZ):           0.0000000          44.3457405          44.3457399
 Leave Link  202 at Fri Sep 25 11:48:08 2020, MaxMem=   268435456 cpu:               2.1 elap:               0.6
 (Enter /applis/site/cecic/gaussian16/B.01/nehalem/g16/l301.exe)
 Standard basis: CC-pVTZ (5D, 7F)
 Ernie: Thresh=  0.10000D-02 Tol=  0.10000D-05 Strict=F.
 Ernie:  6 primitive shells out of 60 were deleted.
    74 basis functions,   121 primitive gaussians,    85 cartesian basis functions
     7 alpha electrons        7 beta electrons
       nuclear repulsion energy        23.8787456428 Hartrees.
 IExCor= 4336 DFT=T Ex+Corr=M062X ExCW=0 ScaHFX=  0.540000
 ScaDFX=  1.000000  1.000000  1.000000  1.000000 ScalE2=  1.000000  1.000000
 IRadAn=      5 IRanWt=     -1 IRanGd=            0 ICorTp=0 IEmpDi=  4
 NAtoms=    3 NActive=    3 NUniq=    3 SFac= 1.00D+00 NAtFMM=   60 NAOKFM=F Big=F
 Integral buffers will be    131072 words long.
 Raffenetti 2 integral format.
 Two-electron integral symmetry is turned off.
 Leave Link  301 at Fri Sep 25 11:48:08 2020, MaxMem=   268435456 cpu:               0.7 elap:               0.3
 (Enter /applis/site/cecic/gaussian16/B.01/nehalem/g16/l302.exe)
 NPDir=0 NMtPBC=     1 NCelOv=     1 NCel=       1 NClECP=     1 NCelD=      1
         NCelK=      1 NCelE2=     1 NClLst=     1 CellRange=     0.0.
 One-electron integrals computed using PRISM.
 NBasis=    74 RedAO= T EigKep=  1.06D-03  NBF=    74
 NBsUse=    74 1.00D-06 EigRej= -1.00D+00 NBFU=    74
 Precomputing XC quadrature grid using
 IXCGrd= 4 IRadAn=           5 IRanWt=          -1 IRanGd=           0 AccXCQ= 0.00D+00.
 Generated NRdTot=       0 NPtTot=           0 NUsed=           0 NTot=          32
 NSgBfM=    85    85    85    85    85 MxSgAt=     3 MxSgA2=     3.
 Leave Link  302 at Fri Sep 25 11:48:09 2020, MaxMem=   268435456 cpu:               4.3 elap:               1.0
 (Enter /applis/site/cecic/gaussian16/B.01/nehalem/g16/l303.exe)
 DipDrv:  MaxL=1.
 Leave Link  303 at Fri Sep 25 11:48:10 2020, MaxMem=   268435456 cpu:               2.8 elap:               0.6
 (Enter /applis/site/cecic/gaussian16/B.01/nehalem/g16/l401.exe)
 ExpMin= 1.03D-01 ExpMax= 1.14D+04 ExpMxC= 3.89D+02 IAcc=3 IRadAn=         5 AccDes= 0.00D+00
 Harris functional with IExCor= 1009 and IRadAn=       5 diagonalized for initial guess.
 HarFok:  IExCor= 1009 AccDes= 0.00D+00 IRadAn=         5 IDoV= 1 UseB2=F ITyADJ=14
 ICtDFT=  3500011 ScaDFX=  1.000000  1.000000  1.000000  1.000000
 FoFCou: FMM=F IPFlag=           0 FMFlag=      100000 FMFlg1=           0
         NFxFlg=           0 DoJE=T BraDBF=F KetDBF=T FulRan=T
         wScrn=  0.000000 ICntrl=       500 IOpCl=  0 I1Cent=   200000004 NGrid=           0
         NMat0=    1 NMatS0=      1 NMatT0=    0 NMatD0=    1 NMtDS0=    0 NMtDT0=    0
 Symmetry not used in FoFCou.
 Harris En= -93.3719573073254    
 JPrj=0 DoOrth=F DoCkMO=F.
 Leave Link  401 at Fri Sep 25 11:48:10 2020, MaxMem=   268435456 cpu:               2.9 elap:               0.6
 (Enter /applis/site/cecic/gaussian16/B.01/nehalem/g16/l502.exe)
 Keep R1 ints in memory in canonical form, NReq=11137308.
 FoFCou: FMM=F IPFlag=           0 FMFlag=           0 FMFlg1=           0
         NFxFlg=           0 DoJE=F BraDBF=F KetDBF=F FulRan=T
         wScrn=  0.000000 ICntrl=       600 IOpCl=  0 I1Cent=           0 NGrid=           0
         NMat0=    1 NMatS0=   2775 NMatT0=    0 NMatD0=    1 NMtDS0=    0 NMtDT0=    0
 Symmetry not used in FoFCou.
 Two-electron integral symmetry not used.
 Closed shell SCF:
 Using DIIS extrapolation, IDIIS=  1040.
 NGot=   268435456 LenX=   264567954 LenY=   264560288
 Requested convergence on RMS density matrix=1.00D-08 within 128 cycles.
 Requested convergence on MAX density matrix=1.00D-06.
 Requested convergence on             energy=1.00D-06.
 No special actions if energy rises.
 Integral accuracy reduced to 1.0D-05 until final iterations.

 Cycle   1  Pass 0  IDiag  1:
 E= -93.3768961879997    
 DIIS: error= 3.18D-02 at cycle   1 NSaved=   1.
 NSaved= 1 IEnMin= 1 EnMin= -93.3768961879997     IErMin= 1 ErrMin= 3.18D-02
 ErrMax= 3.18D-02  0.00D+00 EMaxC= 1.00D-01 BMatC= 6.31D-02 BMatP= 6.31D-02
 IDIUse=3 WtCom= 6.82D-01 WtEn= 3.18D-01
 Coeff-Com:  0.100D+01
 Coeff-En:   0.100D+01
 Coeff:      0.100D+01
 Gap=     0.472 Goal=   None    Shift=    0.000
 GapD=    0.472 DampG=2.000 DampE=0.500 DampFc=1.0000 IDamp=-1.
 RMSDP=3.37D-03 MaxDP=4.60D-02              OVMax= 1.41D-01

 Cycle   2  Pass 0  IDiag  1:
 E= -93.3673039025882     Delta-E=        0.009592285411 Rises=F Damp=F
 DIIS: error= 3.78D-02 at cycle   2 NSaved=   2.
 NSaved= 2 IEnMin= 1 EnMin= -93.3768961879997     IErMin= 1 ErrMin= 3.18D-02
 ErrMax= 3.78D-02  0.00D+00 EMaxC= 1.00D-01 BMatC= 6.50D-02 BMatP= 6.31D-02
 IDIUse=3 WtCom= 6.22D-01 WtEn= 3.78D-01
 Coeff-Com:  0.504D+00 0.496D+00
 Coeff-En:   0.550D+00 0.450D+00
 Coeff:      0.522D+00 0.478D+00
 Gap=     0.549 Goal=   None    Shift=    0.000
 RMSDP=2.25D-03 MaxDP=2.79D-02 DE= 9.59D-03 OVMax= 1.02D-01

 Cycle   3  Pass 0  IDiag  1:
 E= -93.4160006077635     Delta-E=       -0.048696705175 Rises=F Damp=F
 DIIS: error= 1.47D-02 at cycle   3 NSaved=   3.
 NSaved= 3 IEnMin= 3 EnMin= -93.4160006077635     IErMin= 3 ErrMin= 1.47D-02
 ErrMax= 1.47D-02  0.00D+00 EMaxC= 1.00D-01 BMatC= 7.11D-03 BMatP= 6.31D-02
 IDIUse=3 WtCom= 8.53D-01 WtEn= 1.47D-01
 Coeff-Com:  0.150D+00 0.267D+00 0.583D+00
 Coeff-En:   0.000D+00 0.633D-01 0.937D+00
 Coeff:      0.128D+00 0.237D+00 0.635D+00
 Gap=     0.485 Goal=   None    Shift=    0.000
 RMSDP=5.98D-04 MaxDP=9.92D-03 DE=-4.87D-02 OVMax= 3.64D-02

 Cycle   4  Pass 0  IDiag  1:
 E= -93.4214755235048     Delta-E=       -0.005474915741 Rises=F Damp=F
 DIIS: error= 4.82D-03 at cycle   4 NSaved=   4.
 NSaved= 4 IEnMin= 4 EnMin= -93.4214755235048     IErMin= 4 ErrMin= 4.82D-03
 ErrMax= 4.82D-03  0.00D+00 EMaxC= 1.00D-01 BMatC= 7.49D-04 BMatP= 7.11D-03
 IDIUse=3 WtCom= 9.52D-01 WtEn= 4.82D-02
 Coeff-Com: -0.435D-02 0.115D-01 0.264D+00 0.729D+00
 Coeff-En:   0.000D+00 0.000D+00 0.834D-01 0.917D+00
 Coeff:     -0.414D-02 0.109D-01 0.255D+00 0.738D+00
 Gap=     0.486 Goal=   None    Shift=    0.000
 RMSDP=1.65D-04 MaxDP=2.75D-03 DE=-5.47D-03 OVMax= 8.52D-03

 Cycle   5  Pass 0  IDiag  1:
 E= -93.4220998419034     Delta-E=       -0.000624318399 Rises=F Damp=F
 DIIS: error= 2.17D-04 at cycle   5 NSaved=   5.
 NSaved= 5 IEnMin= 5 EnMin= -93.4220998419034     IErMin= 5 ErrMin= 2.17D-04
 ErrMax= 2.17D-04  0.00D+00 EMaxC= 1.00D-01 BMatC= 1.07D-06 BMatP= 7.49D-04
 IDIUse=3 WtCom= 9.98D-01 WtEn= 2.17D-03
 Coeff-Com: -0.749D-03-0.310D-02-0.332D-01-0.468D-01 0.108D+01
 Coeff-En:   0.000D+00 0.000D+00 0.000D+00 0.000D+00 0.100D+01
 Coeff:     -0.747D-03-0.309D-02-0.331D-01-0.467D-01 0.108D+01
 Gap=     0.486 Goal=   None    Shift=    0.000
 RMSDP=2.17D-05 MaxDP=4.30D-04 DE=-6.24D-04 OVMax= 4.29D-04

 Cycle   6  Pass 0  IDiag  1:
 E= -93.4221009455558     Delta-E=       -0.000001103652 Rises=F Damp=F
 DIIS: error= 1.39D-05 at cycle   6 NSaved=   6.
 NSaved= 6 IEnMin= 6 EnMin= -93.4221009455558     IErMin= 6 ErrMin= 1.39D-05
 ErrMax= 1.39D-05  0.00D+00 EMaxC= 1.00D-01 BMatC= 7.34D-09 BMatP= 1.07D-06
 IDIUse=1 WtCom= 1.00D+00 WtEn= 0.00D+00
 Coeff-Com:  0.376D-04-0.471D-03-0.530D-02-0.121D-01 0.623D-01 0.956D+00
 Coeff:      0.376D-04-0.471D-03-0.530D-02-0.121D-01 0.623D-01 0.956D+00
 Gap=     0.486 Goal=   None    Shift=    0.000
 RMSDP=3.36D-06 MaxDP=7.34D-05 DE=-1.10D-06 OVMax= 5.40D-05

 Initial convergence to 1.0D-05 achieved.  Increase integral accuracy.
 Cycle   7  Pass 1  IDiag  1:
 E= -93.4221143597158     Delta-E=       -0.000013414160 Rises=F Damp=F
 DIIS: error= 5.07D-05 at cycle   1 NSaved=   1.
 NSaved= 1 IEnMin= 1 EnMin= -93.4221143597158     IErMin= 1 ErrMin= 5.07D-05
 ErrMax= 5.07D-05  0.00D+00 EMaxC= 1.00D-01 BMatC= 9.70D-08 BMatP= 9.70D-08
 IDIUse=1 WtCom= 1.00D+00 WtEn= 0.00D+00
 Coeff-Com:  0.100D+01
 Coeff:      0.100D+01
 Gap=     0.486 Goal=   None    Shift=    0.000
 RMSDP=3.36D-06 MaxDP=7.34D-05 DE=-1.34D-05 OVMax= 6.24D-05

 Cycle   8  Pass 1  IDiag  1:
 E= -93.4221144038234     Delta-E=       -0.000000044108 Rises=F Damp=F
 DIIS: error= 6.95D-06 at cycle   2 NSaved=   2.
 NSaved= 2 IEnMin= 2 EnMin= -93.4221144038234     IErMin= 2 ErrMin= 6.95D-06
 ErrMax= 6.95D-06  0.00D+00 EMaxC= 1.00D-01 BMatC= 2.15D-09 BMatP= 9.70D-08
 IDIUse=1 WtCom= 1.00D+00 WtEn= 0.00D+00
 Coeff-Com: -0.326D-01 0.103D+01
 Coeff:     -0.326D-01 0.103D+01
 Gap=     0.486 Goal=   None    Shift=    0.000
 RMSDP=8.11D-07 MaxDP=1.62D-05 DE=-4.41D-08 OVMax= 4.46D-05

 Cycle   9  Pass 1  IDiag  1:
 E= -93.4221144001241     Delta-E=        0.000000003699 Rises=F Damp=F
 DIIS: error= 1.22D-05 at cycle   3 NSaved=   3.
 NSaved= 3 IEnMin= 2 EnMin= -93.4221144038234     IErMin= 2 ErrMin= 6.95D-06
 ErrMax= 1.22D-05  0.00D+00 EMaxC= 1.00D-01 BMatC= 7.12D-09 BMatP= 2.15D-09
 IDIUse=1 WtCom= 1.00D+00 WtEn= 0.00D+00
 Coeff-Com: -0.475D-01 0.693D+00 0.354D+00
 Coeff:     -0.475D-01 0.693D+00 0.354D+00
 Gap=     0.486 Goal=   None    Shift=    0.000
 RMSDP=4.55D-07 MaxDP=6.41D-06 DE= 3.70D-09 OVMax= 2.52D-05

 Cycle  10  Pass 1  IDiag  1:
 E= -93.4221144058785     Delta-E=       -0.000000005754 Rises=F Damp=F
 DIIS: error= 4.09D-07 at cycle   4 NSaved=   4.
 NSaved= 4 IEnMin= 4 EnMin= -93.4221144058785     IErMin= 4 ErrMin= 4.09D-07
 ErrMax= 4.09D-07  0.00D+00 EMaxC= 1.00D-01 BMatC= 1.21D-11 BMatP= 2.15D-09
 IDIUse=1 WtCom= 1.00D+00 WtEn= 0.00D+00
 Coeff-Com:  0.385D-02-0.827D-01-0.809D-01 0.116D+01
 Coeff:      0.385D-02-0.827D-01-0.809D-01 0.116D+01
 Gap=     0.486 Goal=   None    Shift=    0.000
 RMSDP=5.25D-08 MaxDP=1.25D-06 DE=-5.75D-09 OVMax= 1.18D-06

 Cycle  11  Pass 1  IDiag  1:
 E= -93.4221144058901     Delta-E=       -0.000000000012 Rises=F Damp=F
 DIIS: error= 7.93D-08 at cycle   5 NSaved=   5.
 NSaved= 5 IEnMin= 5 EnMin= -93.4221144058901     IErMin= 5 ErrMin= 7.93D-08
 ErrMax= 7.93D-08  0.00D+00 EMaxC= 1.00D-01 BMatC= 2.46D-13 BMatP= 1.21D-11
 IDIUse=1 WtCom= 1.00D+00 WtEn= 0.00D+00
 Coeff-Com:  0.828D-03-0.146D-01-0.139D-01 0.908D-01 0.937D+00
 Coeff:      0.828D-03-0.146D-01-0.139D-01 0.908D-01 0.937D+00
 Gap=     0.486 Goal=   None    Shift=    0.000
 RMSDP=8.45D-09 MaxDP=1.05D-07 DE=-1.16D-11 OVMax= 2.52D-07

 SCF Done:  E(RM062X) =  -93.4221144059     A.U. after   11 cycles
            NFock= 11  Conv=0.85D-08     -V/T= 2.0061
 KE= 9.285784718269D+01 PE=-2.655972739797D+02 EE= 5.543856674837D+01
 Leave Link  502 at Fri Sep 25 11:48:12 2020, MaxMem=   268435456 cpu:              12.6 elap:               1.9
 (Enter /applis/site/cecic/gaussian16/B.01/nehalem/g16/l601.exe)
 Copying SCF densities to generalized density rwf, IOpCl= 0 IROHF=0.

 **********************************************************************

            Population analysis using the SCF Density.

 **********************************************************************

 Alpha  occ. eigenvalues --  -14.77986 -10.59606  -1.03101  -0.69161  -0.46619
 Alpha  occ. eigenvalues --   -0.43242  -0.43242
 Alpha virt. eigenvalues --    0.05353   0.05353   0.07431   0.16040   0.33682
 Alpha virt. eigenvalues --    0.33682   0.38586   0.44155   0.51576   0.57715
 Alpha virt. eigenvalues --    0.57715   0.66816   0.66816   0.72768   0.72768
 Alpha virt. eigenvalues --    0.81924   1.01862   1.21404   1.21404   1.22551
 Alpha virt. eigenvalues --    1.22551   1.44552   1.55020   1.71387   1.71387
 Alpha virt. eigenvalues --    1.82319   2.05798   2.05798   2.21151   2.56914
 Alpha virt. eigenvalues --    2.64164   2.64164   2.65191   2.65191   2.76688
 Alpha virt. eigenvalues --    2.76688   2.93556   2.93556   3.09622   3.09623
 Alpha virt. eigenvalues --    3.14516   3.23593   3.23593   3.51964   3.51964
 Alpha virt. eigenvalues --    3.70454   3.96176   3.96176   3.98224   3.98224
 Alpha virt. eigenvalues --    4.03026   4.51045   4.51045   4.58940   4.58940
 Alpha virt. eigenvalues --    4.65214   4.65214   4.68877   5.04504   5.25866
 Alpha virt. eigenvalues --    5.25866   5.66777   6.15258   6.15258   6.37938
 Alpha virt. eigenvalues --    8.28018  14.47022
          Condensed to atoms (all electrons):
               1          2          3
     1  N    6.172289   0.983794  -0.052525
     2  C    0.983794   4.676071   0.384512
     3  H   -0.052525   0.384512   0.520078
 Mulliken charges:
               1
     1  N   -0.103558
     2  C   -0.044376
     3  H    0.147935
 Sum of Mulliken charges =  -0.00000
 Mulliken charges with hydrogens summed into heavy atoms:
               1
     1  N   -0.103558
     2  C    0.103558
 Electronic spatial extent (au):  <R**2>=             67.9304
 Charge=             -0.0000 electrons
 Dipole moment (field-independent basis, Debye):
    X=              0.0006    Y=              0.0000    Z=              3.0248  Tot=              3.0248
 Quadrupole moment (field-independent basis, Debye-Ang):
   XX=            -11.7618   YY=            -11.7618   ZZ=             -5.6783
   XY=              0.0000   XZ=              0.0013   YZ=             -0.0000
 Traceless Quadrupole moment (field-independent basis, Debye-Ang):
   XX=             -2.0278   YY=             -2.0278   ZZ=              4.0557
   XY=              0.0000   XZ=              0.0013   YZ=             -0.0000
 Octapole moment (field-independent basis, Debye-Ang**2):
  XXX=             -0.0006  YYY=              0.0000  ZZZ=             -7.5491  XYY=             -0.0002
  XXY=              0.0000  XXZ=             -7.4227  XZZ=              0.0030  YZZ=             -0.0000
  YYZ=             -7.4227  XYZ=             -0.0000
 Hexadecapole moment (field-independent basis, Debye-Ang**3):
 XXXX=            -11.6943 YYYY=            -11.6943 ZZZZ=            -37.3046 XXXY=              0.0000
 XXXZ=             -0.0017 YYYX=              0.0000 YYYZ=             -0.0000 ZZZX=              0.0063
 ZZZY=             -0.0000 XXYY=             -3.8981 XXZZ=            -13.7202 YYZZ=            -13.7202
 XXYZ=             -0.0000 YYXZ=             -0.0006 ZZXY=             -0.0000
 N-N= 2.387874564276D+01 E-N=-2.655972775633D+02  KE= 9.285784718269D+01
 No NMR shielding tensors so no spin-rotation constants.
 Leave Link  601 at Fri Sep 25 11:48:13 2020, MaxMem=   268435456 cpu:               2.7 elap:               0.5
 (Enter /applis/site/cecic/gaussian16/B.01/nehalem/g16/l701.exe)
 ... and contract with generalized density number  0.
 Compute integral first derivatives.
 Leave Link  701 at Fri Sep 25 11:48:14 2020, MaxMem=   268435456 cpu:               2.4 elap:               0.5
 (Enter /applis/site/cecic/gaussian16/B.01/nehalem/g16/l702.exe)
 L702 exits ... SP integral derivatives will be done elsewhere.
 Leave Link  702 at Fri Sep 25 11:48:14 2020, MaxMem=   268435456 cpu:               0.5 elap:               0.2
 (Enter /applis/site/cecic/gaussian16/B.01/nehalem/g16/l703.exe)
 Integral derivatives from FoFJK, PRISM(SPDF).
 Compute integral first derivatives, UseDBF=F ICtDFT=           0.
 Calling FoFJK, ICntrl=      2127 FMM=F ISym2X=0 I1Cent= 0 IOpClX= 0 NMat=1 NMatS=1 NMatT=0.
 FoFJK:  IHMeth= 1 ICntrl=    2127 DoSepK=F KAlg= 0 I1Cent=           0 FoldK=F
 IRaf=         0 NMat=       1 IRICut=       1 DoRegI=T DoRafI=F ISym2E= 0 IDoP0=0 IntGTp=1.
 FoFCou: FMM=F IPFlag=           0 FMFlag=      100000 FMFlg1=         800
         NFxFlg=           0 DoJE=F BraDBF=F KetDBF=F FulRan=T
         wScrn=  0.000000 ICntrl=      2127 IOpCl=  0 I1Cent=           0 NGrid=           0
         NMat0=    1 NMatS0=      1 NMatT0=    0 NMatD0=    1 NMtDS0=    0 NMtDT0=    0
 Symmetry not used in FoFCou.
 Leave Link  703 at Fri Sep 25 11:48:15 2020, MaxMem=   268435456 cpu:               5.9 elap:               0.9
 (Enter /applis/site/cecic/gaussian16/B.01/nehalem/g16/l716.exe)
 Dipole        = 2.28710501D-04 5.60165093D-16 1.19003996D+00
 -------------------------------------------------------------------
 Center     Atomic                   Forces (Hartrees/Bohr)
 Number     Number              X              Y              Z
 -------------------------------------------------------------------
      1        7          -0.000013776   -0.000000000    0.035959176
      2        6           0.000026025    0.000000000   -0.042210722
      3        1          -0.000012250    0.000000000    0.006251546
 -------------------------------------------------------------------
 Cartesian Forces:  Max     0.042210722 RMS     0.018600747
 Leave Link  716 at Fri Sep 25 11:48:15 2020, MaxMem=   268435456 cpu:               0.7 elap:               0.2
 (Enter /applis/site/cecic/gaussian16/B.01/nehalem/g16/l103.exe)

 GradGradGradGradGradGradGradGradGradGradGradGradGradGradGradGradGradGrad
 Berny optimization.
 FormGI is forming the generalized inverse of G from B-inverse, IUseBI=4.
 Internal  Forces:  Max     0.021105385 RMS     0.014923760
 Search for a local minimum.
 Step number   1 out of a maximum of  100
 All quantities printed in internal units (Hartrees-Bohrs-Radians)
 RMS Force = .14924D-01 SwitMx=.10000D-02 MixMth= 1
 Mixed Optimization -- RFO/linear search
 Second derivative matrix not updated -- first step.
 The second derivative matrix:
                          R1        R2        A1        A2
           R1           1.29677
           R2           0.00000   0.38732
           A1           0.00000   0.00000   0.00652
           A2           0.00000   0.00000   0.00000   0.00652
 ITU=  0
     Eigenvalues ---    0.00652   0.00652   0.84204
 RFO step:  Lambda=-1.05681444D-03 EMin= 6.52440700D-03
 Linear search not attempted -- first point.
 Iteration  1 RMS(Cart)=  0.01039709 RMS(Int)=  0.00000449
 Iteration  2 RMS(Cart)=  0.00000430 RMS(Int)=  0.00000001
 Iteration  3 RMS(Cart)=  0.00000000 RMS(Int)=  0.00000001
 ITry= 1 IFail=0 DXMaxC= 1.67D-02 DCOld= 1.00D+10 DXMaxT= 3.00D-01 DXLimC= 3.00D+00 Rises=F
 Variable       Old X    -DE/DX   Delta X   Delta X   Delta X     New X
                                 (Linear)    (Quad)   (Total)
    R1        2.18670  -0.02111   0.00000  -0.02503  -0.02503   2.16166
    R2        2.00014   0.02111   0.00000   0.02503   0.02503   2.02517
    A1        3.14115   0.00005   0.00000   0.00449   0.00449   3.14564
    A2        3.14159  -0.00000   0.00000  -0.00000   0.00000   3.14159
         Item               Value     Threshold  Converged?
 Maximum Force            0.021105     0.000450     NO 
 RMS     Force            0.014924     0.000300     NO 
 Maximum Displacement     0.016688     0.001800     NO 
 RMS     Displacement     0.010397     0.001200     NO 
 Predicted change in Energy=-5.290809D-04
 Lowest energy point so far.  Saving SCF results.
 GradGradGradGradGradGradGradGradGradGradGradGradGradGradGradGradGradGrad

 Leave Link  103 at Fri Sep 25 11:48:16 2020, MaxMem=   268435456 cpu:               3.5 elap:               0.7
 (Enter /applis/site/cecic/gaussian16/B.01/nehalem/g16/l202.exe)
                          Input orientation:                          
 ---------------------------------------------------------------------
 Center     Atomic      Atomic             Coordinates (Angstroms)
 Number     Number       Type             X           Y           Z
 ---------------------------------------------------------------------
      1          7           0       -0.000791    0.000000    0.004419
      2          6           0        0.001654    0.000000    1.148319
      3          1           0       -0.000390   -0.000000    2.219992
 ---------------------------------------------------------------------
                    Distance matrix (angstroms):
                    1          2          3
     1  N    0.000000
     2  C    1.143902   0.000000
     3  H    2.215573   1.071675   0.000000
 Symmetry turned off by external request.
 Stoichiometry    CHN
 Framework group  CS[SG(CHN)]
 Deg. of freedom     3
 Full point group                 CS      NOp   2
 Rotational constants (GHZ):    36764857.4963494          45.0455026          45.0454474
 Leave Link  202 at Fri Sep 25 11:48:16 2020, MaxMem=   268435456 cpu:               2.0 elap:               0.4
 (Enter /applis/site/cecic/gaussian16/B.01/nehalem/g16/l301.exe)
 Standard basis: CC-pVTZ (5D, 7F)
 Ernie: Thresh=  0.10000D-02 Tol=  0.10000D-05 Strict=F.
 Ernie:  6 primitive shells out of 60 were deleted.
    74 basis functions,   121 primitive gaussians,    85 cartesian basis functions
     7 alpha electrons        7 beta electrons
       nuclear repulsion energy        24.0641137817 Hartrees.
 IExCor= 4336 DFT=T Ex+Corr=M062X ExCW=0 ScaHFX=  0.540000
 ScaDFX=  1.000000  1.000000  1.000000  1.000000 ScalE2=  1.000000  1.000000
 IRadAn=      5 IRanWt=     -1 IRanGd=            0 ICorTp=0 IEmpDi=  4
 NAtoms=    3 NActive=    3 NUniq=    3 SFac= 1.00D+00 NAtFMM=   60 NAOKFM=F Big=F
 Integral buffers will be    131072 words long.
 Raffenetti 2 integral format.
 Two-electron integral symmetry is turned off.
 Leave Link  301 at Fri Sep 25 11:48:16 2020, MaxMem=   268435456 cpu:               0.7 elap:               0.2
 (Enter /applis/site/cecic/gaussian16/B.01/nehalem/g16/l302.exe)
 NPDir=0 NMtPBC=     1 NCelOv=     1 NCel=       1 NClECP=     1 NCelD=      1
         NCelK=      1 NCelE2=     1 NClLst=     1 CellRange=     0.0.
 One-electron integrals computed using PRISM.
 NBasis=    74 RedAO= T EigKep=  1.08D-03  NBF=    74
 NBsUse=    74 1.00D-06 EigRej= -1.00D+00 NBFU=    74
 Precomputing XC quadrature grid using
 IXCGrd= 4 IRadAn=           5 IRanWt=          -1 IRanGd=           0 AccXCQ= 0.00D+00.
 Generated NRdTot=       0 NPtTot=           0 NUsed=           0 NTot=          32
 NSgBfM=    85    85    85    85    85 MxSgAt=     3 MxSgA2=     3.
 Leave Link  302 at Fri Sep 25 11:48:17 2020, MaxMem=   268435456 cpu:               1.9 elap:               0.4
 (Enter /applis/site/cecic/gaussian16/B.01/nehalem/g16/l303.exe)
 DipDrv:  MaxL=1.
 Leave Link  303 at Fri Sep 25 11:48:17 2020, MaxMem=   268435456 cpu:               2.5 elap:               0.5
 (Enter /applis/site/cecic/gaussian16/B.01/nehalem/g16/l401.exe)
 Initial guess from the checkpoint file:  "input.chk"
 B after Tr=    -0.000961    0.000000   -0.002380
         Rot=    0.000000    0.000633    0.000000    1.000000 Ang= 180.00 deg.
 Guess basis will be translated and rotated to current coordinates.
 JPrj=2 DoOrth=T DoCkMO=T.
 Leave Link  401 at Fri Sep 25 11:48:18 2020, MaxMem=   268435456 cpu:               6.0 elap:               1.2
 (Enter /applis/site/cecic/gaussian16/B.01/nehalem/g16/l502.exe)
 Keep R1 ints in memory in canonical form, NReq=11137308.
 FoFCou: FMM=F IPFlag=           0 FMFlag=           0 FMFlg1=           0
         NFxFlg=           0 DoJE=F BraDBF=F KetDBF=F FulRan=T
         wScrn=  0.000000 ICntrl=       600 IOpCl=  0 I1Cent=           0 NGrid=           0
         NMat0=    1 NMatS0=   2775 NMatT0=    0 NMatD0=    1 NMtDS0=    0 NMtDT0=    0
 Symmetry not used in FoFCou.
 Two-electron integral symmetry not used.
 Closed shell SCF:
 Using DIIS extrapolation, IDIIS=  1040.
 NGot=   268435456 LenX=   264567954 LenY=   264560288
 Requested convergence on RMS density matrix=1.00D-08 within 128 cycles.
 Requested convergence on MAX density matrix=1.00D-06.
 Requested convergence on             energy=1.00D-06.
 No special actions if energy rises.

 Cycle   1  Pass 1  IDiag  1:
 E= -93.4224667435612    
 DIIS: error= 1.81D-03 at cycle   1 NSaved=   1.
 NSaved= 1 IEnMin= 1 EnMin= -93.4224667435612     IErMin= 1 ErrMin= 1.81D-03
 ErrMax= 1.81D-03  0.00D+00 EMaxC= 1.00D-01 BMatC= 2.17D-04 BMatP= 2.17D-04
 IDIUse=3 WtCom= 9.82D-01 WtEn= 1.81D-02
 Coeff-Com:  0.100D+01
 Coeff-En:   0.100D+01
 Coeff:      0.100D+01
 Gap=     1.971 Goal=   None    Shift=    0.000
 GapD=    1.971 DampG=2.000 DampE=1.000 DampFc=2.0000 IDamp=-1.
 RMSDP=1.81D-04 MaxDP=2.66D-03              OVMax= 5.07D-03

 Cycle   2  Pass 1  IDiag  1:
 E= -93.4225688327254     Delta-E=       -0.000102089164 Rises=F Damp=F
 DIIS: error= 1.36D-03 at cycle   2 NSaved=   2.
 NSaved= 2 IEnMin= 2 EnMin= -93.4225688327254     IErMin= 2 ErrMin= 1.36D-03
 ErrMax= 1.36D-03  0.00D+00 EMaxC= 1.00D-01 BMatC= 7.95D-05 BMatP= 2.17D-04
 IDIUse=3 WtCom= 9.86D-01 WtEn= 1.36D-02
 Coeff-Com:  0.341D+00 0.659D+00
 Coeff-En:   0.236D-01 0.976D+00
 Coeff:      0.337D+00 0.663D+00
 Gap=     0.493 Goal=   None    Shift=    0.000
 RMSDP=9.63D-05 MaxDP=1.30D-03 DE=-1.02D-04 OVMax= 4.45D-03

 Cycle   3  Pass 1  IDiag  1:
 E= -93.4226002048464     Delta-E=       -0.000031372121 Rises=F Damp=F
 DIIS: error= 8.85D-04 at cycle   3 NSaved=   3.
 NSaved= 3 IEnMin= 3 EnMin= -93.4226002048464     IErMin= 3 ErrMin= 8.85D-04
 ErrMax= 8.85D-04  0.00D+00 EMaxC= 1.00D-01 BMatC= 3.98D-05 BMatP= 7.95D-05
 IDIUse=3 WtCom= 9.91D-01 WtEn= 8.85D-03
 Coeff-Com:  0.757D-01 0.411D+00 0.514D+00
 Coeff-En:   0.000D+00 0.346D+00 0.654D+00
 Coeff:      0.751D-01 0.410D+00 0.515D+00
 Gap=     0.494 Goal=   None    Shift=    0.000
 RMSDP=3.86D-05 MaxDP=5.74D-04 DE=-3.14D-05 OVMax= 2.19D-03

 Cycle   4  Pass 1  IDiag  1:
 E= -93.4226310115347     Delta-E=       -0.000030806688 Rises=F Damp=F
 DIIS: error= 2.32D-04 at cycle   4 NSaved=   4.
 NSaved= 4 IEnMin= 4 EnMin= -93.4226310115347     IErMin= 4 ErrMin= 2.32D-04
 ErrMax= 2.32D-04  0.00D+00 EMaxC= 1.00D-01 BMatC= 1.34D-06 BMatP= 3.98D-05
 IDIUse=3 WtCom= 9.98D-01 WtEn= 2.32D-03
 Coeff-Com: -0.143D-01 0.644D-01 0.193D+00 0.757D+00
 Coeff-En:   0.000D+00 0.000D+00 0.000D+00 0.100D+01
 Coeff:     -0.143D-01 0.643D-01 0.193D+00 0.757D+00
 Gap=     0.494 Goal=   None    Shift=    0.000
 RMSDP=1.01D-05 MaxDP=1.54D-04 DE=-3.08D-05 OVMax= 4.73D-04

 Cycle   5  Pass 1  IDiag  1:
 E= -93.4226323054313     Delta-E=       -0.000001293897 Rises=F Damp=F
 DIIS: error= 2.87D-05 at cycle   5 NSaved=   5.
 NSaved= 5 IEnMin= 5 EnMin= -93.4226323054313     IErMin= 5 ErrMin= 2.87D-05
 ErrMax= 2.87D-05  0.00D+00 EMaxC= 1.00D-01 BMatC= 3.32D-08 BMatP= 1.34D-06
 IDIUse=1 WtCom= 1.00D+00 WtEn= 0.00D+00
 Coeff-Com: -0.212D-02-0.174D-01-0.236D-01 0.815D-01 0.962D+00
 Coeff:     -0.212D-02-0.174D-01-0.236D-01 0.815D-01 0.962D+00
 Gap=     0.494 Goal=   None    Shift=    0.000
 RMSDP=2.74D-06 MaxDP=3.95D-05 DE=-1.29D-06 OVMax= 7.46D-05

 Cycle   6  Pass 1  IDiag  1:
 E= -93.4226323379813     Delta-E=       -0.000000032550 Rises=F Damp=F
 DIIS: error= 3.46D-06 at cycle   6 NSaved=   6.
 NSaved= 6 IEnMin= 6 EnMin= -93.4226323379813     IErMin= 6 ErrMin= 3.46D-06
 ErrMax= 3.46D-06  0.00D+00 EMaxC= 1.00D-01 BMatC= 3.77D-10 BMatP= 3.32D-08
 IDIUse=1 WtCom= 1.00D+00 WtEn= 0.00D+00
 Coeff-Com:  0.399D-03-0.307D-02-0.837D-02-0.181D-01 0.824D-02 0.102D+01
 Coeff:      0.399D-03-0.307D-02-0.837D-02-0.181D-01 0.824D-02 0.102D+01
 Gap=     0.494 Goal=   None    Shift=    0.000
 RMSDP=5.14D-07 MaxDP=9.67D-06 DE=-3.26D-08 OVMax= 1.46D-05

 Cycle   7  Pass 1  IDiag  1:
 E= -93.4226323384582     Delta-E=       -0.000000000477 Rises=F Damp=F
 DIIS: error= 5.22D-07 at cycle   7 NSaved=   7.
 NSaved= 7 IEnMin= 7 EnMin= -93.4226323384582     IErMin= 7 ErrMin= 5.22D-07
 ErrMax= 5.22D-07  0.00D+00 EMaxC= 1.00D-01 BMatC= 1.86D-11 BMatP= 3.77D-10
 IDIUse=1 WtCom= 1.00D+00 WtEn= 0.00D+00
 Coeff-Com:  0.130D-04 0.647D-03 0.497D-03-0.335D-03-0.235D-01-0.266D-01
 Coeff-Com:  0.105D+01
 Coeff:      0.130D-04 0.647D-03 0.497D-03-0.335D-03-0.235D-01-0.266D-01
 Coeff:      0.105D+01
 Gap=     0.494 Goal=   None    Shift=    0.000
 RMSDP=5.03D-08 MaxDP=8.32D-07 DE=-4.77D-10 OVMax= 2.01D-06

 Cycle   8  Pass 1  IDiag  1:
 E= -93.4226323384753     Delta-E=       -0.000000000017 Rises=F Damp=F
 DIIS: error= 2.99D-08 at cycle   8 NSaved=   8.
 NSaved= 8 IEnMin= 8 EnMin= -93.4226323384753     IErMin= 8 ErrMin= 2.99D-08
 ErrMax= 2.99D-08  0.00D+00 EMaxC= 1.00D-01 BMatC= 7.16D-14 BMatP= 1.86D-11
 IDIUse=1 WtCom= 1.00D+00 WtEn= 0.00D+00
 Coeff-Com: -0.647D-05-0.166D-04 0.579D-04 0.306D-03 0.214D-02-0.801D-02
 Coeff-Com: -0.131D+00 0.114D+01
 Coeff:     -0.647D-05-0.166D-04 0.579D-04 0.306D-03 0.214D-02-0.801D-02
 Coeff:     -0.131D+00 0.114D+01
 Gap=     0.494 Goal=   None    Shift=    0.000
 RMSDP=6.60D-09 MaxDP=7.18D-08 DE=-1.71D-11 OVMax= 2.46D-07

 SCF Done:  E(RM062X) =  -93.4226323385     A.U. after    8 cycles
            NFock=  8  Conv=0.66D-08     -V/T= 2.0055
 KE= 9.290938058148D+01 PE=-2.660242975748D+02 EE= 5.562817087315D+01
 Leave Link  502 at Fri Sep 25 11:48:20 2020, MaxMem=   268435456 cpu:              12.9 elap:               1.9
 (Enter /applis/site/cecic/gaussian16/B.01/nehalem/g16/l701.exe)
 ... and contract with generalized density number  0.
 Compute integral first derivatives.
 Leave Link  701 at Fri Sep 25 11:48:21 2020, MaxMem=   268435456 cpu:               3.3 elap:               0.7
 (Enter /applis/site/cecic/gaussian16/B.01/nehalem/g16/l702.exe)
 L702 exits ... SP integral derivatives will be done elsewhere.
 Leave Link  702 at Fri Sep 25 11:48:21 2020, MaxMem=   268435456 cpu:               0.5 elap:               0.1
 (Enter /applis/site/cecic/gaussian16/B.01/nehalem/g16/l703.exe)
 Integral derivatives from FoFJK, PRISM(SPDF).
 Compute integral first derivatives, UseDBF=F ICtDFT=           0.
 Calling FoFJK, ICntrl=      2127 FMM=F ISym2X=0 I1Cent= 0 IOpClX= 0 NMat=1 NMatS=1 NMatT=0.
 FoFJK:  IHMeth= 1 ICntrl=    2127 DoSepK=F KAlg= 0 I1Cent=           0 FoldK=F
 IRaf=         0 NMat=       1 IRICut=       1 DoRegI=T DoRafI=F ISym2E= 0 IDoP0=0 IntGTp=1.
 FoFCou: FMM=F IPFlag=           0 FMFlag=      100000 FMFlg1=         800
         NFxFlg=           0 DoJE=F BraDBF=F KetDBF=F FulRan=T
         wScrn=  0.000000 ICntrl=      2127 IOpCl=  0 I1Cent=           0 NGrid=           0
         NMat0=    1 NMatS0=      1 NMatT0=    0 NMatD0=    1 NMtDS0=    0 NMtDT0=    0
 Symmetry not used in FoFCou.
 Leave Link  703 at Fri Sep 25 11:48:22 2020, MaxMem=   268435456 cpu:               4.9 elap:               0.7
 (Enter /applis/site/cecic/gaussian16/B.01/nehalem/g16/l716.exe)
 Dipole        = 4.72629551D-04-4.26404144D-15 1.19636467D+00
 -------------------------------------------------------------------
 Center     Atomic                   Forces (Hartrees/Bohr)
 Number     Number              X              Y              Z
 -------------------------------------------------------------------
      1        7           0.000135223   -0.000000000    0.003222999
      2        6          -0.000280548    0.000000000    0.001106330
      3        1           0.000145325    0.000000000   -0.004329329
 -------------------------------------------------------------------
 Cartesian Forces:  Max     0.004329329 RMS     0.001840075
 Leave Link  716 at Fri Sep 25 11:48:22 2020, MaxMem=   268435456 cpu:               0.7 elap:               0.2
 (Enter /applis/site/cecic/gaussian16/B.01/nehalem/g16/l103.exe)

 GradGradGradGradGradGradGradGradGradGradGradGradGradGradGradGradGradGrad
 Berny optimization.
 Using GEDIIS/GDIIS optimizer.
 FormGI is forming the generalized inverse of G from B-inverse, IUseBI=4.
 Internal  Forces:  Max     0.000554805 RMS     0.000421984
 Search for a local minimum.
 Step number   2 out of a maximum of  100
 All quantities printed in internal units (Hartrees-Bohrs-Radians)
 RMS Force = .42198D-03 SwitMx=.10000D-02 MixMth= 2
 Mixed Optimization -- En-DIIS/RFO-DIIS
 Update second derivatives using D2CorX and points    1    2
 DE= -5.18D-04 DEPred=-5.29D-04 R= 9.79D-01
 TightC=F SS=  1.41D+00  RLast= 3.57D-02 DXNew= 5.0454D-01 1.0705D-01
 Trust test= 9.79D-01 RLast= 3.57D-02 DXMaxT set to 3.00D-01
 The second derivative matrix:
                          R1        R2        A1        A2
           R1           0.73018
           R2          -0.13380   0.73031
           A1          -0.00635   0.00699   0.00665
           A2           0.00000  -0.00000  -0.00000   0.00652
 ITU=  1  0
 Use linear search instead of GDIIS.
     Eigenvalues ---    0.00652   0.00658   0.86415
 RFO step:  Lambda=-1.41422346D-05 EMin= 6.52440700D-03
 Quartic linear search produced a step of -0.02623.
 Iteration  1 RMS(Cart)=  0.01981067 RMS(Int)=  0.00039890
 Iteration  2 RMS(Cart)=  0.00039852 RMS(Int)=  0.00000000
 Iteration  3 RMS(Cart)=  0.00000000 RMS(Int)=  0.00000000
 ITry= 1 IFail=0 DXMaxC= 3.23D-02 DCOld= 1.00D+10 DXMaxT= 3.00D-01 DXLimC= 3.00D+00 Rises=F
 Variable       Old X    -DE/DX   Delta X   Delta X   Delta X     New X
                                 (Linear)    (Quad)   (Total)
    R1        2.16166   0.00055   0.00066  -0.00063   0.00003   2.16169
    R2        2.02517  -0.00055  -0.00066   0.00015  -0.00051   2.02466
    A1        3.14564  -0.00032  -0.00012  -0.04630  -0.04642   3.09922
    A2        3.14159  -0.00000  -0.00000   0.00000   0.00000   3.14159
         Item               Value     Threshold  Converged?
 Maximum Force            0.000555     0.000450     NO 
 RMS     Force            0.000422     0.000300     NO 
 Maximum Displacement     0.032341     0.001800     NO 
 RMS     Displacement     0.019815     0.001200     NO 
 Predicted change in Energy=-7.569448D-06
 Lowest energy point so far.  Saving SCF results.
 GradGradGradGradGradGradGradGradGradGradGradGradGradGradGradGradGradGrad

 Leave Link  103 at Fri Sep 25 11:48:23 2020, MaxMem=   268435456 cpu:               4.3 elap:               0.9
 (Enter /applis/site/cecic/gaussian16/B.01/nehalem/g16/l202.exe)
                          Input orientation:                          
 ---------------------------------------------------------------------
 Center     Atomic      Atomic             Coordinates (Angstroms)
 Number     Number       Type             X           Y           Z
 ---------------------------------------------------------------------
      1          7           0        0.007487    0.000000    0.004739
      2          6           0       -0.015460   -0.000000    1.148426
      3          1           0        0.008446   -0.000000    2.219565
 ---------------------------------------------------------------------
                    Distance matrix (angstroms):
                    1          2          3
     1  N    0.000000
     2  C    1.143917   0.000000
     3  H    2.214826   1.071406   0.000000
 Symmetry turned off by external request.
 Stoichiometry    CHN
 Framework group  CS[SG(CHN)]
 Deg. of freedom     3
 Full point group                 CS      NOp   2
 Rotational constants (GHZ):      335378.9122509          45.0586541          45.0526013
 Leave Link  202 at Fri Sep 25 11:48:23 2020, MaxMem=   268435456 cpu:               1.2 elap:               0.3
 (Enter /applis/site/cecic/gaussian16/B.01/nehalem/g16/l301.exe)
 Standard basis: CC-pVTZ (5D, 7F)
 Ernie: Thresh=  0.10000D-02 Tol=  0.10000D-05 Strict=F.
 Ernie:  6 primitive shells out of 60 were deleted.
    74 basis functions,   121 primitive gaussians,    85 cartesian basis functions
     7 alpha electrons        7 beta electrons
       nuclear repulsion energy        24.0651764618 Hartrees.
 IExCor= 4336 DFT=T Ex+Corr=M062X ExCW=0 ScaHFX=  0.540000
 ScaDFX=  1.000000  1.000000  1.000000  1.000000 ScalE2=  1.000000  1.000000
 IRadAn=      5 IRanWt=     -1 IRanGd=            0 ICorTp=0 IEmpDi=  4
 NAtoms=    3 NActive=    3 NUniq=    3 SFac= 1.00D+00 NAtFMM=   60 NAOKFM=F Big=F
 Integral buffers will be    131072 words long.
 Raffenetti 2 integral format.
 Two-electron integral symmetry is turned off.
 Leave Link  301 at Fri Sep 25 11:48:23 2020, MaxMem=   268435456 cpu:               0.6 elap:               0.1
 (Enter /applis/site/cecic/gaussian16/B.01/nehalem/g16/l302.exe)
 NPDir=0 NMtPBC=     1 NCelOv=     1 NCel=       1 NClECP=     1 NCelD=      1
         NCelK=      1 NCelE2=     1 NClLst=     1 CellRange=     0.0.
 One-electron integrals computed using PRISM.
 NBasis=    74 RedAO= T EigKep=  1.08D-03  NBF=    74
 NBsUse=    74 1.00D-06 EigRej= -1.00D+00 NBFU=    74
 Precomputing XC quadrature grid using
 IXCGrd= 4 IRadAn=           5 IRanWt=          -1 IRanGd=           0 AccXCQ= 0.00D+00.
 Generated NRdTot=       0 NPtTot=           0 NUsed=           0 NTot=          32
 NSgBfM=    85    85    85    85    85 MxSgAt=     3 MxSgA2=     3.
 Leave Link  302 at Fri Sep 25 11:48:24 2020, MaxMem=   268435456 cpu:               2.2 elap:               0.4
 (Enter /applis/site/cecic/gaussian16/B.01/nehalem/g16/l303.exe)
 DipDrv:  MaxL=1.
 Leave Link  303 at Fri Sep 25 11:48:24 2020, MaxMem=   268435456 cpu:               2.3 elap:               0.5
 (Enter /applis/site/cecic/gaussian16/B.01/nehalem/g16/l401.exe)
 Initial guess from the checkpoint file:  "input.chk"
 B after Tr=     0.006794    0.000000    0.000381
         Rot=    0.000000   -0.004280    0.000000    0.999991 Ang=-180.00 deg.
 Guess basis will be translated and rotated to current coordinates.
 JPrj=2 DoOrth=T DoCkMO=T.
 Generating alternative initial guess.
 ExpMin= 1.03D-01 ExpMax= 1.14D+04 ExpMxC= 3.89D+02 IAcc=3 IRadAn=         5 AccDes= 0.00D+00
 Harris functional with IExCor= 1009 and IRadAn=       5 diagonalized for initial guess.
 HarFok:  IExCor= 1009 AccDes= 0.00D+00 IRadAn=         5 IDoV= 1 UseB2=F ITyADJ=14
 ICtDFT=  3500011 ScaDFX=  1.000000  1.000000  1.000000  1.000000
 FoFCou: FMM=F IPFlag=           0 FMFlag=      100000 FMFlg1=           0
         NFxFlg=           0 DoJE=T BraDBF=F KetDBF=T FulRan=T
         wScrn=  0.000000 ICntrl=       500 IOpCl=  0 I1Cent=   200000004 NGrid=           0
         NMat0=    1 NMatS0=      1 NMatT0=    0 NMatD0=    1 NMtDS0=    0 NMtDT0=    0
 Symmetry not used in FoFCou.
 Harris En= -93.3749811845881    
 Leave Link  401 at Fri Sep 25 11:48:26 2020, MaxMem=   268435456 cpu:              11.3 elap:               1.8
 (Enter /applis/site/cecic/gaussian16/B.01/nehalem/g16/l502.exe)
 Keep R1 ints in memory in canonical form, NReq=11137308.
 FoFCou: FMM=F IPFlag=           0 FMFlag=           0 FMFlg1=           0
         NFxFlg=           0 DoJE=F BraDBF=F KetDBF=F FulRan=T
         wScrn=  0.000000 ICntrl=       600 IOpCl=  0 I1Cent=           0 NGrid=           0
         NMat0=    1 NMatS0=   2775 NMatT0=    0 NMatD0=    1 NMtDS0=    0 NMtDT0=    0
 Symmetry not used in FoFCou.
 Two-electron integral symmetry not used.
 Closed shell SCF:
 Using DIIS extrapolation, IDIIS=  1040.
 NGot=   268435456 LenX=   264567954 LenY=   264560288
 Requested convergence on RMS density matrix=1.00D-08 within 128 cycles.
 Requested convergence on MAX density matrix=1.00D-06.
 Requested convergence on             energy=1.00D-06.
 No special actions if energy rises.
 Integral accuracy reduced to 1.0D-05 until final iterations.

 Cycle   1  Pass 0  IDiag  1:
 E= -93.4224560746120    
 DIIS: error= 1.86D-03 at cycle   1 NSaved=   1.
 NSaved= 1 IEnMin= 1 EnMin= -93.4224560746120     IErMin= 1 ErrMin= 1.86D-03
 ErrMax= 1.86D-03  0.00D+00 EMaxC= 1.00D-01 BMatC= 1.14D-04 BMatP= 1.14D-04
 IDIUse=3 WtCom= 9.81D-01 WtEn= 1.86D-02
 Coeff-Com:  0.100D+01
 Coeff-En:   0.100D+01
 Coeff:      0.100D+01
 Gap=     1.967 Goal=   None    Shift=    0.000
 GapD=    1.967 DampG=2.000 DampE=1.000 DampFc=2.0000 IDamp=-1.
 RMSDP=9.16D-05 MaxDP=1.47D-03              OVMax= 4.09D-03

 Cycle   2  Pass 0  IDiag  1:
 E= -93.4225562041832     Delta-E=       -0.000100129571 Rises=F Damp=F
 DIIS: error= 2.10D-04 at cycle   2 NSaved=   2.
 NSaved= 2 IEnMin= 2 EnMin= -93.4225562041832     IErMin= 2 ErrMin= 2.10D-04
 ErrMax= 2.10D-04  0.00D+00 EMaxC= 1.00D-01 BMatC= 1.74D-06 BMatP= 1.14D-04
 IDIUse=3 WtCom= 9.98D-01 WtEn= 2.10D-03
 Coeff-Com: -0.776D-01 0.108D+01
 Coeff-En:   0.000D+00 0.100D+01
 Coeff:     -0.774D-01 0.108D+01
 Gap=     0.493 Goal=   None    Shift=    0.000
 RMSDP=2.45D-05 MaxDP=3.79D-04 DE=-1.00D-04 OVMax= 1.09D-03

 Cycle   3  Pass 0  IDiag  1:
 E= -93.4225604836150     Delta-E=       -0.000004279432 Rises=F Damp=F
 DIIS: error= 5.15D-05 at cycle   3 NSaved=   3.
 NSaved= 3 IEnMin= 3 EnMin= -93.4225604836150     IErMin= 3 ErrMin= 5.15D-05
 ErrMax= 5.15D-05  0.00D+00 EMaxC= 1.00D-01 BMatC= 2.06D-07 BMatP= 1.74D-06
 IDIUse=1 WtCom= 1.00D+00 WtEn= 0.00D+00
 Coeff-Com: -0.135D-01 0.603D-01 0.953D+00
 Coeff:     -0.135D-01 0.603D-01 0.953D+00
 Gap=     0.493 Goal=   None    Shift=    0.000
 RMSDP=8.04D-06 MaxDP=1.01D-04 DE=-4.28D-06 OVMax= 3.84D-04

 Initial convergence to 1.0D-05 achieved.  Increase integral accuracy.
 Cycle   4  Pass 1  IDiag  1:
 E= -93.4225730063857     Delta-E=       -0.000012522771 Rises=F Damp=F
 DIIS: error= 9.34D-05 at cycle   1 NSaved=   1.
 NSaved= 1 IEnMin= 1 EnMin= -93.4225730063857     IErMin= 1 ErrMin= 9.34D-05
 ErrMax= 9.34D-05  0.00D+00 EMaxC= 1.00D-01 BMatC= 4.68D-07 BMatP= 4.68D-07
 IDIUse=1 WtCom= 1.00D+00 WtEn= 0.00D+00
 Coeff-Com:  0.100D+01
 Coeff:      0.100D+01
 Gap=     0.493 Goal=   None    Shift=    0.000
 RMSDP=8.04D-06 MaxDP=1.01D-04 DE=-1.25D-05 OVMax= 5.44D-04

 Cycle   5  Pass 1  IDiag  1:
 E= -93.4225723459019     Delta-E=        0.000000660484 Rises=F Damp=F
 DIIS: error= 1.63D-04 at cycle   2 NSaved=   2.
 NSaved= 2 IEnMin= 1 EnMin= -93.4225730063857     IErMin= 1 ErrMin= 9.34D-05
 ErrMax= 1.63D-04  0.00D+00 EMaxC= 1.00D-01 BMatC= 1.25D-06 BMatP= 4.68D-07
 IDIUse=3 WtCom= 4.39D-01 WtEn= 5.61D-01
 Coeff-Com:  0.626D+00 0.374D+00
 Coeff-En:   0.708D+00 0.292D+00
 Coeff:      0.672D+00 0.328D+00
 Gap=     0.493 Goal=   None    Shift=    0.000
 RMSDP=5.73D-06 MaxDP=8.19D-05 DE= 6.60D-07 OVMax= 3.26D-04

 Cycle   6  Pass 1  IDiag  1:
 E= -93.4225733651188     Delta-E=       -0.000001019217 Rises=F Damp=F
 DIIS: error= 1.23D-05 at cycle   3 NSaved=   3.
 NSaved= 3 IEnMin= 3 EnMin= -93.4225733651188     IErMin= 3 ErrMin= 1.23D-05
 ErrMax= 1.23D-05  0.00D+00 EMaxC= 1.00D-01 BMatC= 8.31D-09 BMatP= 4.68D-07
 IDIUse=1 WtCom= 1.00D+00 WtEn= 0.00D+00
 Coeff-Com: -0.540D-01-0.123D+00 0.118D+01
 Coeff:     -0.540D-01-0.123D+00 0.118D+01
 Gap=     0.493 Goal=   None    Shift=    0.000
 RMSDP=7.76D-07 MaxDP=1.09D-05 DE=-1.02D-06 OVMax= 3.58D-05

 Cycle   7  Pass 1  IDiag  1:
 E= -93.4225733729547     Delta-E=       -0.000000007836 Rises=F Damp=F
 DIIS: error= 7.25D-07 at cycle   4 NSaved=   4.
 NSaved= 4 IEnMin= 4 EnMin= -93.4225733729547     IErMin= 4 ErrMin= 7.25D-07
 ErrMax= 7.25D-07  0.00D+00 EMaxC= 1.00D-01 BMatC= 3.34D-11 BMatP= 8.31D-09
 IDIUse=1 WtCom= 1.00D+00 WtEn= 0.00D+00
 Coeff-Com:  0.520D-02 0.253D-01-0.249D+00 0.122D+01
 Coeff:      0.520D-02 0.253D-01-0.249D+00 0.122D+01
 Gap=     0.493 Goal=   None    Shift=    0.000
 RMSDP=1.46D-07 MaxDP=1.84D-06 DE=-7.84D-09 OVMax= 7.45D-06

 Cycle   8  Pass 1  IDiag  1:
 E= -93.4225733730403     Delta-E=       -0.000000000086 Rises=F Damp=F
 DIIS: error= 2.30D-07 at cycle   5 NSaved=   5.
 NSaved= 5 IEnMin= 5 EnMin= -93.4225733730403     IErMin= 5 ErrMin= 2.30D-07
 ErrMax= 2.30D-07  0.00D+00 EMaxC= 1.00D-01 BMatC= 3.20D-12 BMatP= 3.34D-11
 IDIUse=1 WtCom= 1.00D+00 WtEn= 0.00D+00
 Coeff-Com:  0.437D-02 0.132D-01-0.127D+00 0.298D+00 0.811D+00
 Coeff:      0.437D-02 0.132D-01-0.127D+00 0.298D+00 0.811D+00
 Gap=     0.493 Goal=   None    Shift=    0.000
 RMSDP=2.38D-08 MaxDP=2.44D-07 DE=-8.55D-11 OVMax= 1.31D-06

 Cycle   9  Pass 1  IDiag  1:
 E= -93.4225733730437     Delta-E=       -0.000000000003 Rises=F Damp=F
 DIIS: error= 6.46D-08 at cycle   6 NSaved=   6.
 NSaved= 6 IEnMin= 6 EnMin= -93.4225733730437     IErMin= 6 ErrMin= 6.46D-08
 ErrMax= 6.46D-08  0.00D+00 EMaxC= 1.00D-01 BMatC= 1.47D-13 BMatP= 3.20D-12
 IDIUse=1 WtCom= 1.00D+00 WtEn= 0.00D+00
 Coeff-Com: -0.152D-03-0.122D-02 0.109D-01-0.686D-01 0.795D-01 0.980D+00
 Coeff:     -0.152D-03-0.122D-02 0.109D-01-0.686D-01 0.795D-01 0.980D+00
 Gap=     0.493 Goal=   None    Shift=    0.000
 RMSDP=5.17D-09 MaxDP=5.08D-08 DE=-3.47D-12 OVMax= 2.95D-07

 SCF Done:  E(RM062X) =  -93.4225733730     A.U. after    9 cycles
            NFock=  9  Conv=0.52D-08     -V/T= 2.0055
 KE= 9.290982909355D+01 PE=-2.660265368557D+02 EE= 5.562895792737D+01
 Leave Link  502 at Fri Sep 25 11:48:28 2020, MaxMem=   268435456 cpu:              11.4 elap:               1.7
 (Enter /applis/site/cecic/gaussian16/B.01/nehalem/g16/l701.exe)
 ... and contract with generalized density number  0.
 Compute integral first derivatives.
 Leave Link  701 at Fri Sep 25 11:48:29 2020, MaxMem=   268435456 cpu:               3.8 elap:               0.7
 (Enter /applis/site/cecic/gaussian16/B.01/nehalem/g16/l702.exe)
 L702 exits ... SP integral derivatives will be done elsewhere.
 Leave Link  702 at Fri Sep 25 11:48:29 2020, MaxMem=   268435456 cpu:               0.7 elap:               0.2
 (Enter /applis/site/cecic/gaussian16/B.01/nehalem/g16/l703.exe)
 Integral derivatives from FoFJK, PRISM(SPDF).
 Compute integral first derivatives, UseDBF=F ICtDFT=           0.
 Calling FoFJK, ICntrl=      2127 FMM=F ISym2X=0 I1Cent= 0 IOpClX= 0 NMat=1 NMatS=1 NMatT=0.
 FoFJK:  IHMeth= 1 ICntrl=    2127 DoSepK=F KAlg= 0 I1Cent=           0 FoldK=F
 IRaf=         0 NMat=       1 IRICut=       1 DoRegI=T DoRafI=F ISym2E= 0 IDoP0=0 IntGTp=1.
 FoFCou: FMM=F IPFlag=           0 FMFlag=      100000 FMFlg1=         800
         NFxFlg=           0 DoJE=F BraDBF=F KetDBF=F FulRan=T
         wScrn=  0.000000 ICntrl=      2127 IOpCl=  0 I1Cent=           0 NGrid=           0
         NMat0=    1 NMatS0=      1 NMatT0=    0 NMatD0=    1 NMtDS0=    0 NMtDT0=    0
 Symmetry not used in FoFCou.
 Leave Link  703 at Fri Sep 25 11:48:30 2020, MaxMem=   268435456 cpu:               7.4 elap:               1.1
 (Enter /applis/site/cecic/gaussian16/B.01/nehalem/g16/l716.exe)
 Dipole        =-2.15690160D-03 1.97273235D-15 1.19573868D+00
 -------------------------------------------------------------------
 Center     Atomic                   Forces (Hartrees/Bohr)
 Number     Number              X              Y              Z
 -------------------------------------------------------------------
      1        7          -0.001408345   -0.000000000    0.003180621
      2        6           0.002935756    0.000000000    0.000900581
      3        1          -0.001527411   -0.000000000   -0.004081203
 -------------------------------------------------------------------
 Cartesian Forces:  Max     0.004081203 RMS     0.002121810
 Leave Link  716 at Fri Sep 25 11:48:30 2020, MaxMem=   268435456 cpu:               0.6 elap:               0.2
 (Enter /applis/site/cecic/gaussian16/B.01/nehalem/g16/l103.exe)

 GradGradGradGradGradGradGradGradGradGradGradGradGradGradGradGradGradGrad
 Berny optimization.
 Using GEDIIS/GDIIS optimizer.
 FormGI is forming the generalized inverse of G from B-inverse, IUseBI=4.
 Internal  Forces:  Max     0.003284284 RMS     0.001677841
 Search for a local minimum.
 Step number   3 out of a maximum of  100
 All quantities printed in internal units (Hartrees-Bohrs-Radians)
 RMS Force = .16778D-02 SwitMx=.10000D-02 MixMth= 1
 Mixed Optimization -- RFO/linear search
 Update second derivatives using D2CorX and points    1    3    2
 DE=  5.90D-05 DEPred=-7.57D-06 R=-7.79D+00
 Trust test=-7.79D+00 RLast= 4.64D-02 DXMaxT set to 1.50D-01
 The second derivative matrix:
                          R1        R2        A1        A2
           R1           0.72078
           R2          -0.11567   0.69747
           A1          -0.00427  -0.00935   0.07767
           A2           0.00000  -0.00000   0.00000   0.00652
 ITU= -1  1  0
 Use linear search instead of GDIIS.
     Eigenvalues ---    0.00652   0.08214   0.82481
 RFO step:  Lambda=-7.11039359D-07 EMin= 6.52440700D-03
 Quartic linear search produced a step of -0.87393.
 Iteration  1 RMS(Cart)=  0.01735764 RMS(Int)=  0.00030581
 Iteration  2 RMS(Cart)=  0.00030548 RMS(Int)=  0.00000000
 Iteration  3 RMS(Cart)=  0.00000000 RMS(Int)=  0.00000000
 ITry= 1 IFail=0 DXMaxC= 2.83D-02 DCOld= 1.00D+10 DXMaxT= 1.50D-01 DXLimC= 3.00D+00 Rises=F
 Variable       Old X    -DE/DX   Delta X   Delta X   Delta X     New X
                                 (Linear)    (Quad)   (Total)
    R1        2.16169   0.00028  -0.00002   0.00065   0.00063   2.16232
    R2        2.02466  -0.00063   0.00044  -0.00066  -0.00022   2.02445
    A1        3.09922   0.00328   0.04057   0.00008   0.04065   3.13987
    A2        3.14159  -0.00000   0.00000  -0.00000   0.00000   3.14159
         Item               Value     Threshold  Converged?
 Maximum Force            0.003284     0.000450     NO 
 RMS     Force            0.001678     0.000300     NO 
 Maximum Displacement     0.028319     0.001800     NO 
 RMS     Displacement     0.017352     0.001200     NO 
 Predicted change in Energy=-1.052939D-05
 GradGradGradGradGradGradGradGradGradGradGradGradGradGradGradGradGradGrad

 Leave Link  103 at Fri Sep 25 11:48:31 2020, MaxMem=   268435456 cpu:               4.5 elap:               0.9
 (Enter /applis/site/cecic/gaussian16/B.01/nehalem/g16/l202.exe)
                          Input orientation:                          
 ---------------------------------------------------------------------
 Center     Atomic      Atomic             Coordinates (Angstroms)
 Number     Number       Type             X           Y           Z
 ---------------------------------------------------------------------
      1          7           0        0.000241    0.000000    0.004314
      2          6           0       -0.000474    0.000000    1.148563
      3          1           0        0.000707   -0.000000    2.219853
 ---------------------------------------------------------------------
                    Distance matrix (angstroms):
                    1          2          3
     1  N    0.000000
     2  C    1.144249   0.000000
     3  H    2.215540   1.071291   0.000000
 Symmetry turned off by external request.
 Stoichiometry    CHN
 Framework group  CS[SG(CHN)]
 Deg. of freedom     3
 Full point group                 CS      NOp   2
 Rotational constants (GHZ):   202054294.3982923          45.0274346          45.0274246
 Leave Link  202 at Fri Sep 25 11:48:31 2020, MaxMem=   268435456 cpu:               1.1 elap:               0.3
 (Enter /applis/site/cecic/gaussian16/B.01/nehalem/g16/l301.exe)
 Standard basis: CC-pVTZ (5D, 7F)
 Ernie: Thresh=  0.10000D-02 Tol=  0.10000D-05 Strict=F.
 Ernie:  6 primitive shells out of 60 were deleted.
    74 basis functions,   121 primitive gaussians,    85 cartesian basis functions
     7 alpha electrons        7 beta electrons
       nuclear repulsion energy        24.0593122720 Hartrees.
 IExCor= 4336 DFT=T Ex+Corr=M062X ExCW=0 ScaHFX=  0.540000
 ScaDFX=  1.000000  1.000000  1.000000  1.000000 ScalE2=  1.000000  1.000000
 IRadAn=      5 IRanWt=     -1 IRanGd=            0 ICorTp=0 IEmpDi=  4
 NAtoms=    3 NActive=    3 NUniq=    3 SFac= 1.00D+00 NAtFMM=   60 NAOKFM=F Big=F
 Integral buffers will be    131072 words long.
 Raffenetti 2 integral format.
 Two-electron integral symmetry is turned off.
 Leave Link  301 at Fri Sep 25 11:48:31 2020, MaxMem=   268435456 cpu:               0.7 elap:               0.1
 (Enter /applis/site/cecic/gaussian16/B.01/nehalem/g16/l302.exe)
 NPDir=0 NMtPBC=     1 NCelOv=     1 NCel=       1 NClECP=     1 NCelD=      1
         NCelK=      1 NCelE2=     1 NClLst=     1 CellRange=     0.0.
 One-electron integrals computed using PRISM.
 NBasis=    74 RedAO= T EigKep=  1.08D-03  NBF=    74
 NBsUse=    74 1.00D-06 EigRej= -1.00D+00 NBFU=    74
 Precomputing XC quadrature grid using
 IXCGrd= 4 IRadAn=           5 IRanWt=          -1 IRanGd=           0 AccXCQ= 0.00D+00.
 Generated NRdTot=       0 NPtTot=           0 NUsed=           0 NTot=          32
 NSgBfM=    85    85    85    85    85 MxSgAt=     3 MxSgA2=     3.
 Leave Link  302 at Fri Sep 25 11:48:32 2020, MaxMem=   268435456 cpu:               2.9 elap:               0.6
 (Enter /applis/site/cecic/gaussian16/B.01/nehalem/g16/l303.exe)
 DipDrv:  MaxL=1.
 Leave Link  303 at Fri Sep 25 11:48:32 2020, MaxMem=   268435456 cpu:               1.9 elap:               0.4
 (Enter /applis/site/cecic/gaussian16/B.01/nehalem/g16/l401.exe)
 Lowest energy guess from the checkpoint file:  "input.chk"
 B after Tr=    -0.000690    0.000000    0.000079
         Rot=   -0.000000    0.000473    0.000000    1.000000 Ang= 180.00 deg.
 Guess basis will be translated and rotated to current coordinates.
 B after Tr=    -0.007490   -0.000000   -0.000237
         Rot=    0.999989    0.000000   -0.004754    0.000000 Ang=  -0.54 deg.
 Guess basis will be translated and rotated to current coordinates.
 CkInt1:  FT= 1.26D-01
 Max alpha theta=  0.311 degrees.
 JPrj=2 DoOrth=T DoCkMO=T.
 Leave Link  401 at Fri Sep 25 11:48:34 2020, MaxMem=   268435456 cpu:               7.1 elap:               1.5
 (Enter /applis/site/cecic/gaussian16/B.01/nehalem/g16/l502.exe)
 Keep R1 ints in memory in canonical form, NReq=11137308.
 FoFCou: FMM=F IPFlag=           0 FMFlag=           0 FMFlg1=           0
         NFxFlg=           0 DoJE=F BraDBF=F KetDBF=F FulRan=T
         wScrn=  0.000000 ICntrl=       600 IOpCl=  0 I1Cent=           0 NGrid=           0
         NMat0=    1 NMatS0=   2775 NMatT0=    0 NMatD0=    1 NMtDS0=    0 NMtDT0=    0
 Symmetry not used in FoFCou.
 Two-electron integral symmetry not used.
 Closed shell SCF:
 Using DIIS extrapolation, IDIIS=  1040.
 NGot=   268435456 LenX=   264567954 LenY=   264560288
 Requested convergence on RMS density matrix=1.00D-08 within 128 cycles.
 Requested convergence on MAX density matrix=1.00D-06.
 Requested convergence on             energy=1.00D-06.
 No special actions if energy rises.
 Integral accuracy reduced to 1.0D-05 until final iterations.

 Cycle   1  Pass 0  IDiag  1:
 E= -93.4226164745345    
 DIIS: error= 3.53D-04 at cycle   1 NSaved=   1.
 NSaved= 1 IEnMin= 1 EnMin= -93.4226164745345     IErMin= 1 ErrMin= 3.53D-04
 ErrMax= 3.53D-04  0.00D+00 EMaxC= 1.00D-01 BMatC= 4.17D-06 BMatP= 4.17D-06
 IDIUse=3 WtCom= 9.96D-01 WtEn= 3.53D-03
 Coeff-Com:  0.100D+01
 Coeff-En:   0.100D+01
 Coeff:      0.100D+01
 Gap=    11.022 Goal=   None    Shift=    0.000
 RMSDP=1.79D-05 MaxDP=2.75D-04              OVMax= 7.69D-04

 Cycle   2  Pass 0  IDiag  1:
 E= -93.4226200604435     Delta-E=       -0.000003585909 Rises=F Damp=F
 DIIS: error= 4.11D-05 at cycle   2 NSaved=   2.
 NSaved= 2 IEnMin= 2 EnMin= -93.4226200604435     IErMin= 2 ErrMin= 4.11D-05
 ErrMax= 4.11D-05  0.00D+00 EMaxC= 1.00D-01 BMatC= 1.09D-07 BMatP= 4.17D-06
 IDIUse=1 WtCom= 1.00D+00 WtEn= 0.00D+00
 Coeff-Com: -0.471D-01 0.105D+01
 Coeff:     -0.471D-01 0.105D+01
 Gap=     0.494 Goal=   None    Shift=    0.000
 RMSDP=5.79D-06 MaxDP=6.89D-05 DE=-3.59D-06 OVMax= 2.67D-04

 Initial convergence to 1.0D-05 achieved.  Increase integral accuracy.
 Cycle   3  Pass 1  IDiag  1:
 E= -93.4226332784646     Delta-E=       -0.000013218021 Rises=F Damp=F
 DIIS: error= 5.20D-05 at cycle   1 NSaved=   1.
 NSaved= 1 IEnMin= 1 EnMin= -93.4226332784646     IErMin= 1 ErrMin= 5.20D-05
 ErrMax= 5.20D-05  0.00D+00 EMaxC= 1.00D-01 BMatC= 1.96D-07 BMatP= 1.96D-07
 IDIUse=1 WtCom= 1.00D+00 WtEn= 0.00D+00
 Coeff-Com:  0.100D+01
 Coeff:      0.100D+01
 Gap=     0.494 Goal=   None    Shift=    0.000
 RMSDP=5.79D-06 MaxDP=6.89D-05 DE=-1.32D-05 OVMax= 3.15D-04

 Cycle   4  Pass 1  IDiag  1:
 E= -93.4226331009229     Delta-E=        0.000000177542 Rises=F Damp=F
 DIIS: error= 8.77D-05 at cycle   2 NSaved=   2.
 NSaved= 2 IEnMin= 1 EnMin= -93.4226332784646     IErMin= 1 ErrMin= 5.20D-05
 ErrMax= 8.77D-05  0.00D+00 EMaxC= 1.00D-01 BMatC= 3.99D-07 BMatP= 1.96D-07
 IDIUse=1 WtCom= 1.00D+00 WtEn= 0.00D+00
 Coeff-Com:  0.599D+00 0.401D+00
 Coeff:      0.599D+00 0.401D+00
 Gap=     0.494 Goal=   None    Shift=    0.000
 RMSDP=3.97D-06 MaxDP=5.63D-05 DE= 1.78D-07 OVMax= 2.20D-04

 Cycle   5  Pass 1  IDiag  1:
 E= -93.4226334178178     Delta-E=       -0.000000316895 Rises=F Damp=F
 DIIS: error= 1.30D-05 at cycle   3 NSaved=   3.
 NSaved= 3 IEnMin= 3 EnMin= -93.4226334178178     IErMin= 3 ErrMin= 1.30D-05
 ErrMax= 1.30D-05  0.00D+00 EMaxC= 1.00D-01 BMatC= 6.34D-09 BMatP= 1.96D-07
 IDIUse=1 WtCom= 1.00D+00 WtEn= 0.00D+00
 Coeff-Com: -0.230D-01 0.978D-01 0.925D+00
 Coeff:     -0.230D-01 0.978D-01 0.925D+00
 Gap=     0.494 Goal=   None    Shift=    0.000
 RMSDP=6.30D-07 MaxDP=1.14D-05 DE=-3.17D-07 OVMax= 2.99D-05

 Cycle   6  Pass 1  IDiag  1:
 E= -93.4226334233601     Delta-E=       -0.000000005542 Rises=F Damp=F
 DIIS: error= 2.41D-06 at cycle   4 NSaved=   4.
 NSaved= 4 IEnMin= 4 EnMin= -93.4226334233601     IErMin= 4 ErrMin= 2.41D-06
 ErrMax= 2.41D-06  0.00D+00 EMaxC= 1.00D-01 BMatC= 2.21D-10 BMatP= 6.34D-09
 IDIUse=1 WtCom= 1.00D+00 WtEn= 0.00D+00
 Coeff-Com: -0.194D-01 0.224D-01 0.320D+00 0.677D+00
 Coeff:     -0.194D-01 0.224D-01 0.320D+00 0.677D+00
 Gap=     0.494 Goal=   None    Shift=    0.000
 RMSDP=1.17D-07 MaxDP=1.61D-06 DE=-5.54D-09 OVMax= 4.30D-06

 Cycle   7  Pass 1  IDiag  1:
 E= -93.4226334235667     Delta-E=       -0.000000000207 Rises=F Damp=F
 DIIS: error= 2.54D-07 at cycle   5 NSaved=   5.
 NSaved= 5 IEnMin= 5 EnMin= -93.4226334235667     IErMin= 5 ErrMin= 2.54D-07
 ErrMax= 2.54D-07  0.00D+00 EMaxC= 1.00D-01 BMatC= 4.16D-12 BMatP= 2.21D-10
 IDIUse=1 WtCom= 1.00D+00 WtEn= 0.00D+00
 Coeff-Com:  0.386D-02-0.107D-01-0.992D-01-0.118D+00 0.122D+01
 Coeff:      0.386D-02-0.107D-01-0.992D-01-0.118D+00 0.122D+01
 Gap=     0.494 Goal=   None    Shift=    0.000
 RMSDP=5.42D-08 MaxDP=7.09D-07 DE=-2.07D-10 OVMax= 2.58D-06

 Cycle   8  Pass 1  IDiag  1:
 E= -93.4226334235770     Delta-E=       -0.000000000010 Rises=F Damp=F
 DIIS: error= 3.40D-08 at cycle   6 NSaved=   6.
 NSaved= 6 IEnMin= 6 EnMin= -93.4226334235770     IErMin= 6 ErrMin= 3.40D-08
 ErrMax= 3.40D-08  0.00D+00 EMaxC= 1.00D-01 BMatC= 5.26D-14 BMatP= 4.16D-12
 IDIUse=1 WtCom= 1.00D+00 WtEn= 0.00D+00
 Coeff-Com: -0.357D-04 0.926D-03 0.527D-02 0.291D-02-0.165D+00 0.116D+01
 Coeff:     -0.357D-04 0.926D-03 0.527D-02 0.291D-02-0.165D+00 0.116D+01
 Gap=     0.494 Goal=   None    Shift=    0.000
 RMSDP=5.88D-09 MaxDP=6.55D-08 DE=-1.03D-11 OVMax= 3.76D-07

 SCF Done:  E(RM062X) =  -93.4226334236     A.U. after    8 cycles
            NFock=  8  Conv=0.59D-08     -V/T= 2.0055
 KE= 9.290803199566D+01 PE=-2.660132246101D+02 EE= 5.562324691886D+01
 Leave Link  502 at Fri Sep 25 11:48:36 2020, MaxMem=   268435456 cpu:              11.5 elap:               1.7
 (Enter /applis/site/cecic/gaussian16/B.01/nehalem/g16/l701.exe)
 ... and contract with generalized density number  0.
 Compute integral first derivatives.
 Leave Link  701 at Fri Sep 25 11:48:36 2020, MaxMem=   268435456 cpu:               2.3 elap:               0.4
 (Enter /applis/site/cecic/gaussian16/B.01/nehalem/g16/l702.exe)
 L702 exits ... SP integral derivatives will be done elsewhere.
 Leave Link  702 at Fri Sep 25 11:48:36 2020, MaxMem=   268435456 cpu:               0.5 elap:               0.1
 (Enter /applis/site/cecic/gaussian16/B.01/nehalem/g16/l703.exe)
 Integral derivatives from FoFJK, PRISM(SPDF).
 Compute integral first derivatives, UseDBF=F ICtDFT=           0.
 Calling FoFJK, ICntrl=      2127 FMM=F ISym2X=0 I1Cent= 0 IOpClX= 0 NMat=1 NMatS=1 NMatT=0.
 FoFJK:  IHMeth= 1 ICntrl=    2127 DoSepK=F KAlg= 0 I1Cent=           0 FoldK=F
 IRaf=         0 NMat=       1 IRICut=       1 DoRegI=T DoRafI=F ISym2E= 0 IDoP0=0 IntGTp=1.
 FoFCou: FMM=F IPFlag=           0 FMFlag=      100000 FMFlg1=         800
         NFxFlg=           0 DoJE=F BraDBF=F KetDBF=F FulRan=T
         wScrn=  0.000000 ICntrl=      2127 IOpCl=  0 I1Cent=           0 NGrid=           0
         NMat0=    1 NMatS0=      1 NMatT0=    0 NMatD0=    1 NMtDS0=    0 NMtDT0=    0
 Symmetry not used in FoFCou.
 Leave Link  703 at Fri Sep 25 11:48:37 2020, MaxMem=   268435456 cpu:               5.3 elap:               0.8
 (Enter /applis/site/cecic/gaussian16/B.01/nehalem/g16/l716.exe)
 Dipole        = 1.42588337D-04 5.56115613D-15 1.19618657D+00
 -------------------------------------------------------------------
 Center     Atomic                   Forces (Hartrees/Bohr)
 Number     Number              X              Y              Z
 -------------------------------------------------------------------
      1        7          -0.000057264   -0.000000000    0.004116146
      2        6           0.000120207    0.000000000   -0.000080711
      3        1          -0.000062943    0.000000000   -0.004035434
 -------------------------------------------------------------------
 Cartesian Forces:  Max     0.004116146 RMS     0.001922255
 Leave Link  716 at Fri Sep 25 11:48:37 2020, MaxMem=   268435456 cpu:               0.6 elap:               0.2
 (Enter /applis/site/cecic/gaussian16/B.01/nehalem/g16/l103.exe)

 GradGradGradGradGradGradGradGradGradGradGradGradGradGradGradGradGradGrad
 Berny optimization.
 Using GEDIIS/GDIIS optimizer.
 FormGI is forming the generalized inverse of G from B-inverse, IUseBI=4.
 Internal  Forces:  Max     0.000136406 RMS     0.000073928
 Search for a local minimum.
 Step number   4 out of a maximum of  100
 All quantities printed in internal units (Hartrees-Bohrs-Radians)
 RMS Force = .73928D-04 SwitMx=.10000D-02 MixMth= 2
 Mixed Optimization -- En-DIIS/RFO-DIIS
 Update second derivatives using D2CorX and points    1    3    2    4
 DE= -1.09D-06 DEPred=-1.05D-05 R= 1.03D-01
 Trust test= 1.03D-01 RLast= 5.85D-03 DXMaxT set to 1.50D-01
 The second derivative matrix:
                          R1        R2        A1        A2
           R1           0.72343
           R2          -0.13918   0.74114
           A1          -0.00301  -0.00577   0.07889
           A2           0.00000  -0.00000   0.00000   0.00652
 ITU=  0 -1  1  0
 Use linear search instead of GDIIS.
     Eigenvalues ---    0.00652   0.07892   0.87147
 RFO step:  Lambda=-1.67850595D-08 EMin= 6.52440700D-03
 Quartic linear search produced a step of -0.18720.
 Iteration  1 RMS(Cart)=  0.00055688 RMS(Int)=  0.00000031
 Iteration  2 RMS(Cart)=  0.00000031 RMS(Int)=  0.00000000
 ITry= 1 IFail=0 DXMaxC= 9.09D-04 DCOld= 1.00D+10 DXMaxT= 1.50D-01 DXLimC= 3.00D+00 Rises=F
 Variable       Old X    -DE/DX   Delta X   Delta X   Delta X     New X
                                 (Linear)    (Quad)   (Total)
    R1        2.16232  -0.00004  -0.00012   0.00008  -0.00004   2.16228
    R2        2.02445   0.00004   0.00014  -0.00009   0.00005   2.02450
    A1        3.13987   0.00014   0.00108   0.00022   0.00130   3.14117
    A2        3.14159  -0.00000   0.00000  -0.00000   0.00000   3.14159
         Item               Value     Threshold  Converged?
 Maximum Force            0.000136     0.000450     YES
 RMS     Force            0.000074     0.000300     YES
 Maximum Displacement     0.000909     0.001800     YES
 RMS     Displacement     0.000557     0.001200     YES
 Predicted change in Energy=-1.128667D-07
 Optimization completed.
    -- Stationary point found.
                           ----------------------------
                           !   Optimized Parameters   !
                           ! (Angstroms and Degrees)  !
 --------------------------                            --------------------------
 ! Name  Definition              Value          Derivative Info.                !
 --------------------------------------------------------------------------------
 ! R1    R(1,2)                  1.1442         -DE/DX =    0.0                 !
 ! R2    R(2,3)                  1.0713         -DE/DX =    0.0                 !
 ! A1    L(1,2,3,-2,-1)        179.9011         -DE/DX =    0.0001              !
 ! A2    L(1,2,3,-1,-2)        180.0            -DE/DX =    0.0                 !
 --------------------------------------------------------------------------------
 Lowest energy point so far.  Saving SCF results.
 Largest change from initial coordinates is atom    2       0.004 Angstoms.
 GradGradGradGradGradGradGradGradGradGradGradGradGradGradGradGradGradGrad

 Leave Link  103 at Fri Sep 25 11:48:38 2020, MaxMem=   268435456 cpu:               3.9 elap:               0.8
 (Enter /applis/site/cecic/gaussian16/B.01/nehalem/g16/l202.exe)
                          Input orientation:                          
 ---------------------------------------------------------------------
 Center     Atomic      Atomic             Coordinates (Angstroms)
 Number     Number       Type             X           Y           Z
 ---------------------------------------------------------------------
      1          7           0        0.000241    0.000000    0.004314
      2          6           0       -0.000474    0.000000    1.148563
      3          1           0        0.000707   -0.000000    2.219853
 ---------------------------------------------------------------------
                    Distance matrix (angstroms):
                    1          2          3
     1  N    0.000000
     2  C    1.144249   0.000000
     3  H    2.215540   1.071291   0.000000
 Symmetry turned off by external request.
 Stoichiometry    CHN
 Framework group  CS[SG(CHN)]
 Deg. of freedom     3
 Full point group                 CS      NOp   2
 Rotational constants (GHZ):   202054294.3982923          45.0274346          45.0274246
 Leave Link  202 at Fri Sep 25 11:48:38 2020, MaxMem=   268435456 cpu:               1.3 elap:               0.3
 (Enter /applis/site/cecic/gaussian16/B.01/nehalem/g16/l601.exe)
 Copying SCF densities to generalized density rwf, IOpCl= 0 IROHF=0.

 **********************************************************************

            Population analysis using the SCF Density.

 **********************************************************************

 Alpha  occ. eigenvalues --  -14.77550 -10.59292  -1.03574  -0.68609  -0.46494
 Alpha  occ. eigenvalues --   -0.43537  -0.43537
 Alpha virt. eigenvalues --    0.05820   0.05820   0.07289   0.16092   0.33684
 Alpha virt. eigenvalues --    0.33684   0.38612   0.44019   0.51718   0.57801
 Alpha virt. eigenvalues --    0.57801   0.66848   0.66848   0.72753   0.72753
 Alpha virt. eigenvalues --    0.82753   1.02621   1.21704   1.21704   1.22935
 Alpha virt. eigenvalues --    1.22935   1.43528   1.55723   1.71349   1.71349
 Alpha virt. eigenvalues --    1.83865   2.05616   2.05616   2.21043   2.57754
 Alpha virt. eigenvalues --    2.64664   2.64664   2.65202   2.65202   2.76735
 Alpha virt. eigenvalues --    2.76736   2.93602   2.93603   3.11003   3.11004
 Alpha virt. eigenvalues --    3.14123   3.24584   3.24585   3.51042   3.51042
 Alpha virt. eigenvalues --    3.69029   3.96660   3.96660   3.97813   3.97814
 Alpha virt. eigenvalues --    4.03504   4.51905   4.51905   4.57493   4.57493
 Alpha virt. eigenvalues --    4.66442   4.66442   4.67693   5.05280   5.25999
 Alpha virt. eigenvalues --    5.25999   5.67347   6.16535   6.16535   6.42650
 Alpha virt. eigenvalues --    8.16761  14.67802
          Condensed to atoms (all electrons):
               1          2          3
     1  N    6.147760   0.993776  -0.050847
     2  C    0.993776   4.676191   0.386709
     3  H   -0.050847   0.386709   0.516772
 Mulliken charges:
               1
     1  N   -0.090689
     2  C   -0.056677
     3  H    0.147366
 Sum of Mulliken charges =  -0.00000
 Mulliken charges with hydrogens summed into heavy atoms:
               1
     1  N   -0.090689
     2  C    0.090689
 Electronic spatial extent (au):  <R**2>=             67.4996
 Charge=             -0.0000 electrons
 Dipole moment (field-independent basis, Debye):
    X=              0.0004    Y=              0.0000    Z=              3.0404  Tot=              3.0404
 Quadrupole moment (field-independent basis, Debye-Ang):
   XX=            -11.7299   YY=            -11.7299   ZZ=             -5.6418
   XY=             -0.0000   XZ=              0.0019   YZ=              0.0000
 Traceless Quadrupole moment (field-independent basis, Debye-Ang):
   XX=             -2.0294   YY=             -2.0294   ZZ=              4.0587
   XY=             -0.0000   XZ=              0.0019   YZ=              0.0000
 Octapole moment (field-independent basis, Debye-Ang**2):
  XXX=              0.0029  YYY=              0.0000  ZZZ=             -7.3934  XYY=              0.0010
  XXY=              0.0000  XXZ=             -7.3970  XZZ=              0.0060  YZZ=              0.0000
  YYZ=             -7.3970  XYZ=             -0.0000
 Hexadecapole moment (field-independent basis, Debye-Ang**3):
 XXXX=            -11.6224 YYYY=            -11.6224 ZZZZ=            -36.5055 XXXY=             -0.0000
 XXXZ=              0.0062 YYYX=             -0.0000 YYYZ=              0.0000 ZZZX=              0.0206
 ZZZY=              0.0000 XXYY=             -3.8741 XXZZ=            -13.6442 YYZZ=            -13.6442
 XXYZ=              0.0000 YYXZ=              0.0021 ZZXY=             -0.0000
 N-N= 2.405931227202D+01 E-N=-2.660132247323D+02  KE= 9.290803199566D+01
 No NMR shielding tensors so no spin-rotation constants.
 Leave Link  601 at Fri Sep 25 11:48:39 2020, MaxMem=   268435456 cpu:               4.1 elap:               0.8
 (Enter /applis/site/cecic/gaussian16/B.01/nehalem/g16/l9999.exe)
 B after Tr=    -0.000262    0.000000    0.002302
         Rot=    1.000000   -0.000000   -0.000157    0.000000 Ang=  -0.02 deg.
 Final structure in terms of initial Z-matrix:
 N
 C,1,B1
 H,2,B2,1,A2
      Variables:
 B1=1.14424914
 B2=1.07129143
 A2=179.90109601
 1\1\GINC-DAHU130\FOpt\RM062X\CC-pVTZ\C1H1N1\TINACCIL\25-Sep-2020\0\\#P
  M062X/cc-pvtz nosymm opt(noeigentest) optcyc=120 freq\\Title\\0,1\N,0
 .0002406227,0.,0.0043137608\C,-0.0004738458,0.,1.1485626769\H,0.000706
 5036,0.,2.2198534564\\Version=ES64L-G16RevB.01\HF=-93.4226334\RMSD=5.8
 82e-09\RMSF=1.922e-03\Dipole=0.0001426,0.,1.1961866\Quadrupole=-1.5087
 843,-1.5087856,3.0175699,0.,0.0014344,0.\PG=CS [SG(C1H1N1)]\\@


 WHERE THERE IS MUCH DESIRE TO LEARN, THERE OF NECESSITY WILL BE
 MUCH ARGUING, MUCH WRITING, MANY OPINIONS; FOR OPINION IN GOOD MEN
 IS BUT KNOWLEDGE IN THE MAKING. -- JOHN MILTON.
 Leave Link 9999 at Fri Sep 25 11:48:39 2020, MaxMem=   268435456 cpu:               1.2 elap:               0.3
 Job cpu time:       0 days  0 hours  2 minutes 55.2 seconds.
 Elapsed time:       0 days  0 hours  0 minutes 32.2 seconds.
 File lengths (MBytes):  RWF=     15 Int=      0 D2E=      0 Chk=      2 Scr=      1
 Normal termination of Gaussian 16 at Fri Sep 25 11:48:39 2020.
 (Enter /applis/site/cecic/gaussian16/B.01/nehalem/g16/l1.exe)
 Link1:  Proceeding to internal job step number  2.
 -------------------------------------------------------------------
 #P Geom=AllCheck Guess=TCheck SCRF=Check GenChk RM062X/CC-pVTZ Freq
 -------------------------------------------------------------------
 1/6=120,10=4,11=1,29=7,30=1,38=1,40=1/1,3;
 2/12=2,15=1,40=1/2;
 3/5=16,6=1,11=2,14=-4,25=1,30=1,70=2,71=2,74=-55,116=1,140=1/1,2,3;
 4/5=101/1;
 5/5=2,38=6,98=1/2;
 8/6=4,10=90,11=11/1;
 11/6=1,8=1,9=11,15=111,16=1,31=1/1,2,10;
 10/6=1,31=1/2;
 6/7=2,8=2,9=2,10=2,28=1/1;
 7/8=1,10=1,25=1,30=1/1,2,3,16;
 1/6=120,10=4,11=1,30=1/3;
 99//99;
 Leave Link    1 at Fri Sep 25 11:48:40 2020, MaxMem=   268435456 cpu:               0.2 elap:               0.0
 (Enter /applis/site/cecic/gaussian16/B.01/nehalem/g16/l101.exe)
 Structure from the checkpoint file:  "input.chk"
 -----
 Title
 -----
 Charge =  0 Multiplicity = 1
 Redundant internal coordinates found in file.  (old form).
 N,0,0.0002406227,0.,0.0043137608
 C,0,-0.0004738458,0.,1.1485626769
 H,0,0.0007065036,0.,2.2198534564
 Recover connectivity data from disk.
 ITRead=  0  0  0
 MicOpt= -1 -1 -1
 NAtoms=      3 NQM=        3 NQMF=       0 NMMI=      0 NMMIF=      0
                NMic=       0 NMicF=      0.
                    Isotopes and Nuclear Properties:
 (Nuclear quadrupole moments (NQMom) in fm**2, nuclear magnetic moments (NMagM)
  in nuclear magnetons)

  Atom         1           2           3
 IAtWgt=          14          12           1
 AtmWgt=  14.0030740  12.0000000   1.0078250
 NucSpn=           2           0           1
 AtZEff=   4.5500000   3.6000000   1.0000000
 NQMom=    2.0440000   0.0000000   0.0000000
 NMagM=    0.4037610   0.0000000   2.7928460
 AtZNuc=   7.0000000   6.0000000   1.0000000
 Leave Link  101 at Fri Sep 25 11:48:40 2020, MaxMem=   268435456 cpu:               1.8 elap:               0.4
 (Enter /applis/site/cecic/gaussian16/B.01/nehalem/g16/l103.exe)

[...]
 FoFCou: FMM=F IPFlag=           0 FMFlag=           0 FMFlg1=           0
         NFxFlg=           0 DoJE=F BraDBF=F KetDBF=F FulRan=T
         wScrn=  0.000000 ICntrl=       600 IOpCl=  0 I1Cent=           0 NGrid=           0
         NMat0=    1 NMatS0=   6670 NMatT0=    0 NMatD0=    1 NMtDS0=    0 NMtDT0=    0
 Petite list used in FoFCou.
 Closed shell SCF:
 Using DIIS extrapolation, IDIIS=  1040.
 NGot=   327680000 LenX=   316362934 LenY=   316344268
 Requested convergence on RMS density matrix=1.00D-08 within 128 cycles.
 Requested convergence on MAX density matrix=1.00D-06.
 Requested convergence on             energy=1.00D-06.
 No special actions if energy rises.

 Cycle   1  Pass 1  IDiag  1:
 E= -92.9022352344634    
 DIIS: error= 1.11D-02 at cycle   1 NSaved=   1.
 NSaved= 1 IEnMin= 1 EnMin= -92.9022352344634     IErMin= 1 ErrMin= 1.11D-02
 ErrMax= 1.11D-02  0.00D+00 EMaxC= 1.00D-01 BMatC= 1.46D-02 BMatP= 1.46D-02
 IDIUse=3 WtCom= 8.89D-01 WtEn= 1.11D-01
 Coeff-Com:  0.100D+01
 Coeff-En:   0.100D+01
 Coeff:      0.100D+01
 Gap=     0.673 Goal=   None    Shift=    0.000
 GapD=    0.673 DampG=2.000 DampE=0.500 DampFc=1.0000 IDamp=-1.
 RMSDP=3.91D-03 MaxDP=1.51D-01              OVMax= 2.32D-02

 Cycle   2  Pass 1  IDiag  1:
 E= -92.9097940188418     Delta-E=       -0.007558784378 Rises=F Damp=F
 DIIS: error= 2.78D-03 at cycle   2 NSaved=   2.
 NSaved= 2 IEnMin= 2 EnMin= -92.9097940188418     IErMin= 2 ErrMin= 2.78D-03
 ErrMax= 2.78D-03  0.00D+00 EMaxC= 1.00D-01 BMatC= 3.18D-04 BMatP= 1.46D-02
 IDIUse=3 WtCom= 9.72D-01 WtEn= 2.78D-02
 Coeff-Com: -0.555D-01 0.106D+01
 Coeff-En:   0.000D+00 0.100D+01
 Coeff:     -0.539D-01 0.105D+01
 Gap=     0.526 Goal=   None    Shift=    0.000
 RMSDP=5.53D-04 MaxDP=2.30D-02 DE=-7.56D-03 OVMax= 6.23D-03

 Cycle   3  Pass 1  IDiag  1:
 E= -92.9100889916382     Delta-E=       -0.000294972796 Rises=F Damp=F
 DIIS: error= 4.92D-04 at cycle   3 NSaved=   3.
 NSaved= 3 IEnMin= 3 EnMin= -92.9100889916382     IErMin= 3 ErrMin= 4.92D-04
 ErrMax= 4.92D-04  0.00D+00 EMaxC= 1.00D-01 BMatC= 2.31D-05 BMatP= 3.18D-04
 IDIUse=3 WtCom= 9.95D-01 WtEn= 4.92D-03
 Coeff-Com: -0.190D-01 0.120D+00 0.899D+00
 Coeff-En:   0.000D+00 0.000D+00 0.100D+01
 Coeff:     -0.189D-01 0.119D+00 0.900D+00
 Gap=     0.523 Goal=   None    Shift=    0.000
 RMSDP=5.45D-05 MaxDP=1.59D-03 DE=-2.95D-04 OVMax= 2.29D-03

 Cycle   4  Pass 1  IDiag  1:
 E= -92.9101142413567     Delta-E=       -0.000025249718 Rises=F Damp=F
 DIIS: error= 2.99D-04 at cycle   4 NSaved=   4.
 NSaved= 4 IEnMin= 4 EnMin= -92.9101142413567     IErMin= 4 ErrMin= 2.99D-04
 ErrMax= 2.99D-04  0.00D+00 EMaxC= 1.00D-01 BMatC= 6.10D-06 BMatP= 2.31D-05
 IDIUse=3 WtCom= 9.97D-01 WtEn= 2.99D-03
 Coeff-Com: -0.384D-02-0.297D-01 0.283D+00 0.751D+00
 Coeff-En:   0.000D+00 0.000D+00 0.000D+00 0.100D+01
 Coeff:     -0.383D-02-0.296D-01 0.282D+00 0.751D+00
 Gap=     0.522 Goal=   None    Shift=    0.000
 RMSDP=1.63D-05 MaxDP=5.76D-04 DE=-2.52D-05 OVMax= 8.80D-04

 Cycle   5  Pass 1  IDiag  1:
 E= -92.9101194460315     Delta-E=       -0.000005204675 Rises=F Damp=F
 DIIS: error= 9.36D-05 at cycle   5 NSaved=   5.
 NSaved= 5 IEnMin= 5 EnMin= -92.9101194460315     IErMin= 5 ErrMin= 9.36D-05
 ErrMax= 9.36D-05  0.00D+00 EMaxC= 1.00D-01 BMatC= 5.68D-07 BMatP= 6.10D-06
 IDIUse=1 WtCom= 1.00D+00 WtEn= 0.00D+00
 Coeff-Com:  0.247D-02-0.292D-01-0.498D-01 0.193D+00 0.884D+00
 Coeff:      0.247D-02-0.292D-01-0.498D-01 0.193D+00 0.884D+00
 Gap=     0.523 Goal=   None    Shift=    0.000
 RMSDP=5.69D-06 MaxDP=1.22D-04 DE=-5.20D-06 OVMax= 3.39D-04

 Cycle   6  Pass 1  IDiag  1:
 E= -92.9101200726826     Delta-E=       -0.000000626651 Rises=F Damp=F
 DIIS: error= 1.58D-05 at cycle   6 NSaved=   6.
 NSaved= 6 IEnMin= 6 EnMin= -92.9101200726826     IErMin= 6 ErrMin= 1.58D-05
 ErrMax= 1.58D-05  0.00D+00 EMaxC= 1.00D-01 BMatC= 1.06D-08 BMatP= 5.68D-07
 IDIUse=1 WtCom= 1.00D+00 WtEn= 0.00D+00
 Coeff-Com:  0.112D-04 0.206D-02-0.940D-02-0.454D-01 0.307D-02 0.105D+01
 Coeff:      0.112D-04 0.206D-02-0.940D-02-0.454D-01 0.307D-02 0.105D+01
 Gap=     0.523 Goal=   None    Shift=    0.000
 RMSDP=1.34D-06 MaxDP=2.67D-05 DE=-6.27D-07 OVMax= 5.51D-05

 Cycle   7  Pass 1  IDiag  1:
 E= -92.9101200914504     Delta-E=       -0.000000018768 Rises=F Damp=F
 DIIS: error= 2.72D-06 at cycle   7 NSaved=   7.
 NSaved= 7 IEnMin= 7 EnMin= -92.9101200914504     IErMin= 7 ErrMin= 2.72D-06
 ErrMax= 2.72D-06  0.00D+00 EMaxC= 1.00D-01 BMatC= 3.73D-10 BMatP= 1.06D-08
 IDIUse=1 WtCom= 1.00D+00 WtEn= 0.00D+00
 Coeff-Com: -0.704D-04 0.348D-03 0.348D-02 0.708D-02-0.334D-01-0.254D+00
 Coeff-Com:  0.128D+01
 Coeff:     -0.704D-04 0.348D-03 0.348D-02 0.708D-02-0.334D-01-0.254D+00
 Coeff:      0.128D+01
 Gap=     0.523 Goal=   None    Shift=    0.000
 RMSDP=3.41D-07 MaxDP=5.84D-06 DE=-1.88D-08 OVMax= 1.79D-05

 Cycle   8  Pass 1  IDiag  1:
 E= -92.9101200922933     Delta-E=       -0.000000000843 Rises=F Damp=F
 DIIS: error= 5.43D-07 at cycle   8 NSaved=   8.
 NSaved= 8 IEnMin= 8 EnMin= -92.9101200922933     IErMin= 8 ErrMin= 5.43D-07
 ErrMax= 5.43D-07  0.00D+00 EMaxC= 1.00D-01 BMatC= 1.35D-11 BMatP= 3.73D-10
 IDIUse=1 WtCom= 1.00D+00 WtEn= 0.00D+00
 Coeff-Com:  0.185D-04-0.144D-03-0.914D-03-0.333D-03 0.879D-02 0.571D-01
 Coeff-Com: -0.407D+00 0.134D+01
 Coeff:      0.185D-04-0.144D-03-0.914D-03-0.333D-03 0.879D-02 0.571D-01
 Coeff:     -0.407D+00 0.134D+01
 Gap=     0.523 Goal=   None    Shift=    0.000
 RMSDP=6.69D-08 MaxDP=2.86D-06 DE=-8.43D-10 OVMax= 2.41D-06

 Cycle   9  Pass 1  IDiag  1:
 E= -92.9101200923168     Delta-E=       -0.000000000024 Rises=F Damp=F
 DIIS: error= 9.67D-08 at cycle   9 NSaved=   9.
 NSaved= 9 IEnMin= 9 EnMin= -92.9101200923168     IErMin= 9 ErrMin= 9.67D-08
 ErrMax= 9.67D-08  0.00D+00 EMaxC= 1.00D-01 BMatC= 3.58D-13 BMatP= 1.35D-11
 IDIUse=1 WtCom= 1.00D+00 WtEn= 0.00D+00
 Coeff-Com: -0.363D-05 0.346D-04 0.141D-03 0.475D-05-0.184D-02-0.868D-02
 Coeff-Com:  0.787D-01-0.375D+00 0.131D+01
 Coeff:     -0.363D-05 0.346D-04 0.141D-03 0.475D-05-0.184D-02-0.868D-02
 Coeff:      0.787D-01-0.375D+00 0.131D+01
 Gap=     0.523 Goal=   None    Shift=    0.000
 RMSDP=9.71D-09 MaxDP=1.90D-07 DE=-2.36D-11 OVMax= 3.85D-07

 SCF Done:  E(RHF) =  -92.9101200923     A.U. after    9 cycles
            NFock=  9  Conv=0.97D-08     -V/T= 2.0019
 KE= 9.273181765542D+01 PE=-2.656350962965D+02 EE= 5.593384627678D+01
 Leave Link  502 at Fri Sep 25 11:49:02 2020, MaxMem=   327680000 cpu:               8.0 elap:               1.3
 (Enter /applis/site/cecic/gaussian16/B.01/nehalem/g16/l801.exe)
 Windowed orbitals will be sorted by symmetry type.
 ExpMin= 2.53D-02 ExpMax= 1.14D+04 ExpMxC= 3.89D+02 IAcc=3 IRadAn=         5 AccDes= 0.00D+00
 HarFok:  IExCor=  205 AccDes= 0.00D+00 IRadAn=         5 IDoV=-2 UseB2=F ITyADJ=14
 ICtDFT= 12500011 ScaDFX=  1.000000  1.000000  1.000000  1.000000
 Largest valence mixing into a core orbital is  1.88D-04
 Largest core mixing into a valence orbital is  3.40D-05
 Range of M.O.s used for correlation:     3   115
 NBasis=   115 NAE=     7 NBE=     7 NFC=     2 NFV=     0
 NROrb=    113 NOA=     5 NOB=     5 NVA=   108 NVB=   108

 **** Warning!!: The largest alpha MO coefficient is  0.44026354D+02

 Leave Link  801 at Fri Sep 25 11:49:02 2020, MaxMem=   327680000 cpu:               1.8 elap:               0.4
 (Enter /applis/site/cecic/gaussian16/B.01/nehalem/g16/l804.exe)
 Closed-shell transformation, MDV=   327680000 ITran=4 ISComp=2.
 Unit  1 TFree=        436182 TCopy=        401590.
 Semi-Direct transformation.
 ModeAB=           2 MOrb=             5 LenV=     327179758
 LASXX=      1764627 LTotXX=     1764627 LenRXX=     1764627
 LTotAB=     1817445 MaxLAS=     5186700 LenRXY=     5186700
 NonZer=     5374845 LenScr=     8650752 LnRSAI=           0
 LnScr1=           0 LExtra=           0 Total=     15602079
 MaxDsk=          -1 SrtSym=           F ITran=            4
 DoSDTr:  NPSUse=  8
 JobTyp=0 Pass  1:  I=   1 to   5.
 (rs|ai) integrals will be sorted in core.
 Complete sort for first half transformation.
 First half transformation complete.
 Complete sort for second half transformation.
 Second half transformation complete.
 Spin components of T(2) and E(2):
     alpha-alpha T2 =       0.1532466785D-01 E2=     -0.4252762314D-01
     alpha-beta  T2 =       0.8938259805D-01 E2=     -0.2634776815D+00
     beta-beta   T2 =       0.1532466785D-01 E2=     -0.4252762314D-01
 ANorm=    0.1058315612D+01
 E2 =    -0.3485329277D+00 EUMP2 =    -0.93258653020059D+02
 Leave Link  804 at Fri Sep 25 11:49:04 2020, MaxMem=   327680000 cpu:              12.4 elap:               1.9
 (Enter /applis/site/cecic/gaussian16/B.01/nehalem/g16/l913.exe)
 CIDS:  MDV=   327680000.
 Frozen-core window:  NFC=   2 NFV=   0.
 IFCWin=0 IBDFC=1 NFBD=     0     0 NFCmp=     0     0 NFFFC=     0     0
 Using DD3R+UMP44R for 1st iteration.
 Using DD4RQ for 2nd and later iterations.
 Keep R2 and R3 ints in memory in symmetry-blocked form, NReq=33809150.
 FoFCou: FMM=F IPFlag=           0 FMFlag=           0 FMFlg1=           0
         NFxFlg=           0 DoJE=F BraDBF=F KetDBF=F FulRan=T
         wScrn=  0.000000 ICntrl=       600 IOpCl=  0 I1Cent=           0 NGrid=           0
         NMat0=    1 NMatS0=   6670 NMatT0=    0 NMatD0=    1 NMtDS0=    0 NMtDT0=    0
 Petite list used in FoFCou.
 CIDS: In Core Option IDoMem=           1.
 CCSD(T)
 =======
 Iterations=  50 Convergence= 0.100D-06
 Produce multiple copies of IABC intergrals
 Iteration Nr.   1
 **********************
 DD1Dir will call FoFMem   1 times, MxPair=        30
 NAB=    15 NAA=     0 NBB=     0.
 MP4(R+Q)=  0.98640113D-02
 Maximum subspace dimension=  5
 A-vector RMS=  3.5960681D-03 Max=  1.2037700D-02 conv= 1.00D-05.
 RLE energy=       -0.3384055014
 E3=        0.34886192D-03        EUMP3=      -0.93258304158D+02
 E4(DQ)=   -0.38535179D-03        UMP4(DQ)=   -0.93258689510D+02
 E4(SDQ)=  -0.50985595D-02        UMP4(SDQ)=  -0.93263402718D+02
 VARIATIONAL ENERGIES WITH THE FIRST-ORDER WAVEFUNCTION:
 DE(Corr)= -0.33810255     E(Corr)=     -93.248222643    
 NORM(A)=   0.10558041D+01
 Iteration Nr.   2
 **********************
 DD1Dir will call FoFMem   1 times, MxPair=        30
 NAB=    15 NAA=     0 NBB=     0.
 A-vector RMS=  3.5132139D-04 Max=  4.7563010D-03 conv= 1.00D-05.
 RLE energy=       -0.3514482675
 DE(Corr)= -0.35079489     E(CORR)=     -93.260914986     Delta=-1.27D-02
 NORM(A)=   0.10617865D+01
 Iteration Nr.   3
 **********************
 DD1Dir will call FoFMem   1 times, MxPair=        30
 NAB=    15 NAA=     0 NBB=     0.
 A-vector RMS=  3.8672221D-04 Max=  1.3790092D-03 conv= 1.00D-05.
 RLE energy=       -0.3520353165
 DE(Corr)= -0.35104951     E(CORR)=     -93.261169601     Delta=-2.55D-04
 NORM(A)=   0.10633274D+01
 Iteration Nr.   4
 **********************
 DD1Dir will call FoFMem   1 times, MxPair=        30
 NAB=    15 NAA=     0 NBB=     0.
 A-vector RMS=  6.8157559D-05 Max=  4.6616006D-04 conv= 1.00D-05.
 RLE energy=       -0.3522761749
 DE(Corr)= -0.35218005     E(CORR)=     -93.262300144     Delta=-1.13D-03
 NORM(A)=   0.10637492D+01
 Iteration Nr.   5
 **********************
 DD1Dir will call FoFMem   1 times, MxPair=        30
 NAB=    15 NAA=     0 NBB=     0.
 A-vector RMS=  4.4890168D-05 Max=  1.8297123D-04 conv= 1.00D-05.
 RLE energy=       -0.3523198782
 DE(Corr)= -0.35229206     E(CORR)=     -93.262412148     Delta=-1.12D-04
 NORM(A)=   0.10638281D+01
 Iteration Nr.   6
 **********************
 DD1Dir will call FoFMem   1 times, MxPair=        30
 NAB=    15 NAA=     0 NBB=     0.
 A-vector RMS=  1.1989706D-05 Max=  5.0081783D-05 conv= 1.00D-05.
 RLE energy=       -0.3523035645
 DE(Corr)= -0.35230751     E(CORR)=     -93.262427602     Delta=-1.55D-05
 NORM(A)=   0.10638246D+01
 Iteration Nr.   7
 **********************
 DD1Dir will call FoFMem   1 times, MxPair=        30
 NAB=    15 NAA=     0 NBB=     0.
 A-vector RMS=  2.6110753D-06 Max=  1.0609743D-05 conv= 1.00D-05.
 RLE energy=       -0.3523079220
 DE(Corr)= -0.35230922     E(CORR)=     -93.262429312     Delta=-1.71D-06
 NORM(A)=   0.10638245D+01
 Iteration Nr.   8
 **********************
 DD1Dir will call FoFMem   1 times, MxPair=        30
 NAB=    15 NAA=     0 NBB=     0.
 A-vector RMS=  5.5988184D-07 Max=  3.9263730D-06 conv= 1.00D-05.
 RLE energy=       -0.3523080925
 DE(Corr)= -0.35230831     E(CORR)=     -93.262428402     Delta= 9.11D-07
 NORM(A)=   0.10638245D+01
 Iteration Nr.   9
 **********************
 DD1Dir will call FoFMem   1 times, MxPair=        30
 NAB=    15 NAA=     0 NBB=     0.
 A-vector RMS=  2.6079657D-07 Max=  1.7200690D-06 conv= 1.00D-05.
 RLE energy=       -0.3523085763
 DE(Corr)= -0.35230870     E(CORR)=     -93.262428788     Delta=-3.86D-07
 NORM(A)=   0.10638246D+01
 Iteration Nr.  10
 **********************
 DD1Dir will call FoFMem   1 times, MxPair=        30
 NAB=    15 NAA=     0 NBB=     0.
 A-vector RMS=  6.9883860D-08 Max=  4.7447534D-07 conv= 1.00D-05.
 RLE energy=       -0.3523088279
 DE(Corr)= -0.35230879     E(CORR)=     -93.262428886     Delta=-9.86D-08
 NORM(A)=   0.10638248D+01
 CI/CC converged in   10 iterations to DelEn=-9.86D-08 Conv= 1.00D-07 ErrA1= 6.99D-08 Conv= 1.00D-05
 Wavefunction amplitudes converged. E(Corr)=     -93.262428886    
 Largest amplitude= 4.99D-02
 IPart=  8 IA=    7   10.85% done.
 IPart=  4 IA=   13   21.08% done.
 IPart=  2 IA=   19   30.69% done.
 IPart=  6 IA=   26   41.10% done.
 IPart=  8 IA=   33   50.67% done.
 IPart=  1 IA=   41   60.57% done.
 IPart=  5 IA=   50   70.39% done.
 IPart=  2 IA=   61   80.48% done.
 IPart=  3 IA=   75   90.29% done.
 Time for triples=     1206.00 seconds.
 T4(CCSD)= -0.18941681D-01
 T5(CCSD)=  0.76639569D-03
 CCSD(T)= -0.93280604171D+02
 Discarding MO integrals.
 Leave Link  913 at Fri Sep 25 11:52:06 2020, MaxMem=   327680000 cpu:            1244.1 elap:             181.9
 (Enter /applis/site/cecic/gaussian16/B.01/nehalem/g16/l601.exe)
 Copying SCF densities to generalized density rwf, IOpCl= 0 IROHF=0.

 **********************************************************************

            Population analysis using the SCF Density.

 **********************************************************************

 Orbital symmetries:
       Occupied  (A') (A') (A') (A') (A') (A") (A')
       Virtual   (A') (A') (A") (A') (A') (A') (A") (A') (A') (A")
                 (A') (A') (A') (A") (A') (A") (A') (A') (A") (A')
                 (A') (A") (A') (A') (A") (A') (A") (A') (A') (A')
                 (A') (A") (A') (A") (A') (A') (A") (A') (A") (A')
                 (A') (A") (A') (A") (A') (A') (A") (A') (A') (A")
                 (A') (A") (A') (A") (A') (A") (A') (A') (A') (A")
                 (A') (A') (A") (A') (A") (A') (A') (A') (A") (A')
                 (A") (A') (A") (A') (A') (A") (A") (A') (A') (A')
                 (A") (A') (A") (A') (A") (A') (A') (A') (A") (A')
                 (A") (A') (A') (A") (A') (A") (A') (A") (A') (A')
                 (A") (A') (A') (A') (A") (A') (A') (A')
 The electronic state is 1-A'.
 Alpha  occ. eigenvalues --  -15.59675 -11.28954  -1.24127  -0.80964  -0.58155
 Alpha  occ. eigenvalues --   -0.49952  -0.49952
 Alpha virt. eigenvalues --    0.02311   0.07168   0.07297   0.07297   0.12765
 Alpha virt. eigenvalues --    0.13730   0.13730   0.14594   0.19901   0.19901
 Alpha virt. eigenvalues --    0.22429   0.26685   0.29391   0.29391   0.30434
 Alpha virt. eigenvalues --    0.30434   0.37482   0.40628   0.43837   0.43837
 Alpha virt. eigenvalues --    0.55029   0.55029   0.56563   0.58028   0.58028
 Alpha virt. eigenvalues --    0.60367   0.65579   0.65579   0.78037   0.85171
 Alpha virt. eigenvalues --    0.87523   0.87523   0.87895   0.87895   0.96511
 Alpha virt. eigenvalues --    1.07443   1.07930   1.07930   1.08593   1.08593
 Alpha virt. eigenvalues --    1.12205   1.12205   1.23936   1.23936   1.25529
 Alpha virt. eigenvalues --    1.34079   1.34079   1.41322   1.59667   1.59667
 Alpha virt. eigenvalues --    1.63350   1.63350   1.65667   1.65667   1.76779
 Alpha virt. eigenvalues --    1.76779   1.88417   1.93018   2.06600   2.07685
 Alpha virt. eigenvalues --    2.07686   2.27143   2.27143   2.39839   2.39839
 Alpha virt. eigenvalues --    2.45573   2.60995   2.95338   2.95338   2.99864
 Alpha virt. eigenvalues --    3.31179   3.31179   3.39064   3.39064   3.43992
 Alpha virt. eigenvalues --    3.43992   3.45827   3.45827   3.73316   3.82100
 Alpha virt. eigenvalues --    3.82100   3.88299   4.22049   4.22049   4.38590
 Alpha virt. eigenvalues --    4.38590   4.52957   4.58957   4.74380   4.74381
 Alpha virt. eigenvalues --    4.97206   4.97206   5.23884   5.23884   5.33663
 Alpha virt. eigenvalues --    5.36349   5.36349   5.52382   5.52382   5.75964
 Alpha virt. eigenvalues --    5.75992   5.76317   6.39766   6.87504   6.87504
 Alpha virt. eigenvalues --    7.03355  14.19413  18.54822
          Condensed to atoms (all electrons):
               1          2          3
     1  N    6.732241   0.655920  -0.062145
     2  C    0.655920   5.752135   0.013766
     3  H   -0.062145   0.013766   0.300541
 Mulliken charges:
               1
     1  N   -0.326016
     2  C   -0.421821
     3  H    0.747838
 Sum of Mulliken charges =  -0.00000
 Mulliken charges with hydrogens summed into heavy atoms:
               1
     1  N   -0.326016
     2  C    0.326016
 Electronic spatial extent (au):  <R**2>=             49.3872
 Charge=             -0.0000 electrons
 Dipole moment (field-independent basis, Debye):
    X=             -0.0024    Y=              3.2959    Z=              0.0000  Tot=              3.2959
 Quadrupole moment (field-independent basis, Debye-Ang):
   XX=            -11.9377   YY=             -9.5344   ZZ=            -11.9377
   XY=             -0.0032   XZ=              0.0000   YZ=              0.0000
 Traceless Quadrupole moment (field-independent basis, Debye-Ang):
   XX=             -0.8011   YY=              1.6022   ZZ=             -0.8011
   XY=             -0.0032   XZ=              0.0000   YZ=              0.0000
 Octapole moment (field-independent basis, Debye-Ang**2):
  XXX=             -0.0026  YYY=              8.1099  ZZZ=              0.0000  XYY=             -0.0081
  XXY=              0.4371  XXZ=              0.0000  XZZ=             -0.0009  YZZ=              0.4371
  YYZ=              0.0000  XYZ=              0.0000
 Hexadecapole moment (field-independent basis, Debye-Ang**3):
 XXXX=            -12.4198 YYYY=            -34.6700 ZZZZ=            -12.4198 XXXY=              0.0050
 XXXZ=              0.0000 YYYX=             -0.0074 YYYZ=              0.0000 ZZZX=              0.0000
 ZZZY=              0.0000 XXYY=             -9.1055 XXZZ=             -4.1399 YYZZ=             -9.1055
 XXYZ=              0.0000 YYXZ=              0.0000 ZZXY=              0.0017
 N-N= 2.405931227202D+01 E-N=-2.656350962470D+02  KE= 9.273181765542D+01
 Symmetry A'   KE= 9.002922713893D+01
 Symmetry A"   KE= 2.702590516497D+00
 Leave Link  601 at Fri Sep 25 11:52:06 2020, MaxMem=   327680000 cpu:               0.9 elap:               0.2
 (Enter /applis/site/cecic/gaussian16/B.01/nehalem/g16/l9999.exe)
 1\1\GINC-DAHU130\SP\RCCSD(T)-FC\Aug-CC-pVTZ\C1H1N1\TINACCIL\25-Sep-202
 0\0\\#P CCSD(T)/aug-cc-pvtz geom=allcheck guess=read\\Title\\0,1\N,0,0
 .0002406227,0.,0.0043137608\C,0,-0.0004738458,0.,1.1485626769\H,0,0.00
 07065036,0.,2.2198534564\\Version=ES64L-G16RevB.01\State=1-A'\HF=-92.9
 101201\MP2=-93.258653\MP3=-93.2583042\MP4D=-93.2685535\MP4DQ=-93.25868
 95\MP4SDQ=-93.2634027\CCSD=-93.2624289\CCSD(T)=-93.2806042\RMSD=9.712e
 -09\PG=CS [SG(C1H1N1)]\\@


 THE PROGRESS OF RIVERS TO THE SEA IS NOT AS RAPID
 AS THAT OF MAN TO ERROR.
                                              -- VOLTAIRE
 Job cpu time:       0 days  0 hours 21 minutes 33.5 seconds.
 Elapsed time:       0 days  0 hours  3 minutes 10.3 seconds.
 File lengths (MBytes):  RWF=    203 Int=      0 D2E=      0 Chk=      2 Scr=      1
 Normal termination of Gaussian 16 at Fri Sep 25 11:52:06 2020.
