$hessian                                                                        
        0.9025397876  -0.0904099645   0.1485821008  -0.1620706712   0.0066075349
        0.1022242810  -0.1424838757  -0.1064011621  -0.0476070286  -0.2458605102
        0.1789709668  -0.1632266814  -0.3521247305   0.0112326249  -0.0399726718
       -0.0904099645   0.1868435033  -0.1044177189  -0.0182246327   0.0152059798
        0.0100768802  -0.0575705489  -0.0481770779  -0.0325633618   0.1532523971
       -0.1347404343   0.1218736621   0.0129527491  -0.0191319710   0.0050305384
        0.1485821008  -0.1044177189   0.1595725881   0.0477729101  -0.0102568564
       -0.0374871573  -0.0119832796  -0.0147385448   0.0073082090  -0.1429729773
        0.1245551577  -0.1075316087  -0.0413987540   0.0048579623  -0.0218620310
       -0.1620706712  -0.0182246327   0.0477729101   0.1510513058  -0.0154688373
       -0.1174598094   0.0298343074   0.0544769100   0.0352903861  -0.0111833204
       -0.0201048630   0.0212962467  -0.0076316216  -0.0006785771   0.0131002665
        0.0066075349   0.0152059798  -0.0102568564  -0.0154688373   0.1709026821
        0.1707842457   0.0180650570  -0.1305076794  -0.2062771671  -0.0075783524
       -0.0520292561   0.0434229178  -0.0016254022  -0.0035717264   0.0023268601
        0.1022242810   0.0100768802  -0.0374871573  -0.1174598094   0.1707842457
        0.3749854102  -0.0033590069  -0.2787146353  -0.2547828035   0.0243350519
        0.1000961717  -0.0852592372  -0.0057405166  -0.0022426623   0.0025437878
       -0.1424838757  -0.0575705489  -0.0119832796   0.0298343074   0.0180650570
       -0.0033590069   0.1278245039   0.0721551578   0.0099827405  -0.0084250730
       -0.0186065788   0.0083232912  -0.0067498626  -0.0140430870  -0.0029637451
       -0.1064011621  -0.0481770779  -0.0147385448   0.0544769100  -0.1305076794
       -0.2787146353   0.0721551578   0.2989970467   0.2118050375  -0.0249950057
       -0.1217336681   0.0821141043   0.0047641000   0.0014213786  -0.0004659617
       -0.0476070286  -0.0325633618   0.0073082090   0.0352903861  -0.2062771671
       -0.2547828035   0.0099827405   0.2118050375   0.2697179899   0.0001606363
        0.0245723712  -0.0190444954   0.0021732658   0.0024631203  -0.0031989000
       -0.2458605102   0.1532523971  -0.1429729773  -0.0111833204  -0.0075783524
        0.0243350519  -0.0084250730  -0.0249950057   0.0001606363   0.2744360824
       -0.1379040901   0.1328171616  -0.0089671788   0.0172250511  -0.0143398724
        0.1789709668  -0.1347404343   0.1245551577  -0.0201048630  -0.0520292561
        0.1000961717  -0.0186065788  -0.1217336681   0.0245723712  -0.1379040901
        0.3077911005  -0.2487178600  -0.0023554350   0.0007122580  -0.0005058406
       -0.1632266814   0.1218736621  -0.1075316087   0.0212962467   0.0434229178
       -0.0852592372   0.0083232912   0.0821141043  -0.0190444954   0.1328171616
       -0.2487178600   0.2124294255   0.0007899819   0.0013071759  -0.0005940843
       -0.3521247305   0.0129527491  -0.0413987540  -0.0076316216  -0.0016254022
       -0.0057405166  -0.0067498626   0.0047641000   0.0021732658  -0.0089671788
       -0.0023554350   0.0007899819   0.3754733934  -0.0137360120   0.0441760229
        0.0112326249  -0.0191319710   0.0048579623  -0.0006785771  -0.0035717264
       -0.0022426623  -0.0140430870   0.0014213786   0.0024631203   0.0172250511
        0.0007122580   0.0013071759  -0.0137360120   0.0205700608  -0.0063855962
       -0.0399726718   0.0050305384  -0.0218620310   0.0131002665   0.0023268601
        0.0025437878  -0.0029637451  -0.0004659617  -0.0031989000  -0.0143398724
       -0.0005058406  -0.0005940843   0.0441760229  -0.0063855962   0.0231112274
