      -----------------------------------------------------------      
     |                   =====================                   |     
     |                           x T B                           |     
     |                   =====================                   |     
     |                         S. Grimme                         |     
     |          Mulliken Center for Theoretical Chemistry        |     
     |                    University of Bonn                     |     
      -----------------------------------------------------------      

   * xtb version 6.2.2 (9d81278992624c895f80dd42a50cac0aa55982e2) compiled by '@Darwin' on 04/03/2020

   xtb is free software: you can redistribute it and/or modify it under
   the terms of the GNU Lesser General Public License as published by
   the Free Software Foundation, either version 3 of the License, or
   (at your option) any later version.
   
   xtb is distributed in the hope that it will be useful,
   but WITHOUT ANY WARRANTY; without even the implied warranty of
   MERCHANTABILITY or FITNESS FOR A PARTICULAR PURPOSE.  See the
   GNU Lesser General Public License for more details.
   
   Cite this work as:
   * S. Grimme, C. Bannwarth, P. Shushkov, J. Chem. Theory Comput., 2017,
     13, 1989-2009. DOI: 10.1021/acs.jctc.7b00118
   * C. Bannwarth, S. Ehlert and S. Grimme., J. Chem. Theory Comput., 2019,
     15, 1652-1671. DOI: 10.1021/acs.jctc.8b01176
   * P. Pracht, E. Caldeweyher, S. Ehlert, S. Grimme, ChemRxiv, 2019, preprint.
     DOI: 10.26434/chemrxiv.8326202.v1
   
   for DFT-D4:
   * E. Caldeweyher, C. Bannwarth and S. Grimme, J. Chem. Phys., 2017,
     147, 034112. DOI: 10.1063/1.4993215
   * E. Caldeweyher, S. Ehlert, A. Hansen, H. Neugebauer, S. Spicher,
     C. Bannwarth and S. Grimme, J. Chem. Phys., 2019, 150, 154122.
     DOI: 10.1063/1.5090222
   
   for sTDA-xTB:
   * S. Grimme and C. Bannwarth, J. Chem. Phys., 2016, 145, 054103.
     DOI: 10.1063/1.4959605
   
   in the mass-spec context:
   * V. Asgeirsson, C. Bauer and S. Grimme, Chem. Sci., 2017, 8, 4879.
     DOI: 10.1039/c7sc00601b
   
   for metadynamics refer to:
   * S. Grimme, J. Chem. Theory Comput., 2019, 155, 2847-2862
     DOI: 10.1021/acs.jctc.9b00143
   
   with help from (in alphabetical order)
   C. Bannwarth, F. Bohle, G. Brandenburg, E. Caldeweyher, M. Checinski,
   S. Dohm, S. Ehlert, S. Ehrlich, F. März, H. Neugebauer, J. Pisarek,
   P. Pracht, P. Shushkov, and S. Spicher.
   
 * started run on 2020/05/12 at 11:45:02.762     

           -------------------------------------------------
          |                Calculation Setup                |
           -------------------------------------------------

          program call               : xtb --input H1C3N1_32_S_2.input H1C3N1_32_S_2.xyz --ohess --molden --namespace H1C3N1_32_S_2 output.out
          calculation namespace      : H1C3N1_32_S_2
          coordinate file            : H1C3N1_32_S_2.xyz
          number of atoms            :                     5
          number of electrons        :                    18
          charge                     :                     0
          spin                       :                   1.0
          first test random number   :      0.85765300909039

   ID    Z sym.   atoms
    1    6 C      1-3
    2    7 N      4
    3    1 H      5

           -------------------------------------------------
          |                 G F N 2 - x T B                 |
           -------------------------------------------------

        Reference                      10.1021/acs.jctc.8b01176
      * Hamiltonian:
        H0-scaling (s, p, d)           1.850000    2.230000    2.230000
        zeta-weighting                 0.500000
      * Dispersion:
        s8                             2.700000
        a1                             0.520000
        a2                             5.000000
        s9                             5.000000
      * Repulsion:
        kExp                           1.500000    1.000000
        rExp                           1.000000
      * Coulomb:
        alpha                          2.000000
        third order                    shell-resolved
        anisotropic                    true
        a3                             3.000000
        a5                             4.000000
        cn-shift                       1.200000
        cn-exp                         4.000000
        max-rad                        5.000000


          ...................................................
          :                      SETUP                      :
          :.................................................:
          :  # basis functions                  17          :
          :  # atomic orbitals                  17          :
          :  # shells                            9          :
          :  # electrons                        18          :
          :  max. iterations                   250          :
          :  Hamiltonian                  GFN2-xTB          :
          :  restarted?                      false          :
          :  GBSA solvation                  false          :
          :  PC potential                    false          :
          :  electronic temp.          300.0000000     K    :
          :  accuracy                    1.0000000          :
          :  -> integral cutoff          0.2500000E+02      :
          :  -> integral neglect         0.1000000E-07      :
          :  -> SCF convergence          0.1000000E-05 Eh   :
          :  -> wf. convergence          0.1000000E-03 e    :
          :  Broyden damping             0.4000000          :
          ...................................................

 iter      E             dE          RMSdq      gap      omega  full diag
   1     -9.5380697 -0.953807E+01  0.503E+00    6.52       0.0  T
   2     -9.5053969  0.326728E-01  0.360E+00    6.41       1.0  T
   3     -9.4276105  0.777864E-01  0.456E+00    6.18       1.0  T
   4     -9.5348329 -0.107222E+00  0.182E+00    6.56       1.0  T
   5     -9.5406585 -0.582554E-02  0.108E+00    6.45       1.0  T
   6     -9.5417450 -0.108646E-02  0.104E+00    6.52       1.0  T
   7     -9.5420699 -0.324907E-03  0.908E-01    6.51       1.0  T
   8     -9.5429733 -0.903431E-03  0.142E-01    6.48       1.0  T
   9     -9.5429655  0.780489E-05  0.141E-01    6.48       1.0  T
  10     -9.5430136 -0.481076E-04  0.173E-02    6.48       2.6  T
  11     -9.5430136 -0.954059E-08  0.153E-02    6.49       2.9  T
  12     -9.5430135  0.783868E-07  0.953E-03    6.49       4.7  T
  13     -9.5430138 -0.228302E-06  0.159E-03    6.49      28.2  T
  14     -9.5430138 -0.520311E-08  0.467E-04    6.49      95.7  T
  15     -9.5430138 -0.373118E-09  0.165E-04    6.49     271.1  T

   *** convergence criteria satisfied after 15 iterations ***

         #    Occupation            Energy/Eh            Energy/eV
      -------------------------------------------------------------
         1        2.0000           -0.7497359             -20.4014
       ...           ...                  ...                  ...
         4        2.0000           -0.6022509             -16.3881
         5        2.0000           -0.5170613             -14.0700
         6        2.0000           -0.4516128             -12.2890
         7        2.0000           -0.4510731             -12.2743
         8        1.9423           -0.4433449             -12.0640
         9        1.0577           -0.4380376             -11.9196
        10        1.0000           -0.4269934             -11.6191 (HOMO)
        11                         -0.1886632              -5.1338 (LUMO)
        12                         -0.1346521              -3.6641
        13                         -0.1132937              -3.0829
        14                          0.0317211               0.8632
        15                          0.1000711               2.7231
       ...                                ...                  ...
        17                          0.3832051              10.4275
      -------------------------------------------------------------
                  HL-Gap            0.2383302 Eh            6.4853 eV
             Fermi-level           -0.3742596 Eh          -10.1841 eV

 transition dipole moment (au) for excitation:           9          10
     X       Y       Z   
   0.1660   0.4706   0.5913  total (au/Debye):    0.774   1.967
 dE (eV)             :    0.301
 oscillator strength :  0.62327E-02

 SCC (total)                   0 d,  0 h,  0 min,  0.006 sec
 SCC setup                      ...        0 min,  0.000 sec (  1.529%)
 Dispersion                     ...        0 min,  0.000 sec (  0.253%)
 integral evaluation            ...        0 min,  0.001 sec ( 25.694%)
 zeroth order Hamiltonian       ...        0 min,  0.000 sec (  0.417%)
 iterations                     ...        0 min,  0.002 sec ( 35.965%)
 molecular gradient             ...        0 min,  0.001 sec ( 20.075%)
 printout                       ...        0 min,  0.001 sec ( 15.856%)

         :::::::::::::::::::::::::::::::::::::::::::::::::::::
         ::                     SUMMARY                     ::
         :::::::::::::::::::::::::::::::::::::::::::::::::::::
         :: total energy              -9.438000192225 Eh    ::
         :: gradient norm              0.113645575140 Eh/a0 ::
         :: HOMO-LUMO gap              6.485294922486 eV    ::
         ::.................................................::
         :: SCC energy                -9.543013757366 Eh    ::
         :: -> isotropic ES            0.008766756240 Eh    ::
         :: -> anisotropic ES          0.001709474989 Eh    ::
         :: -> anisotropic XC          0.007796609364 Eh    ::
         :: -> dispersion             -0.001934723239 Eh    ::
         :: repulsion energy           0.105013549024 Eh    ::
         :: add. restraining           0.000000000000 Eh    ::
         :::::::::::::::::::::::::::::::::::::::::::::::::::::

      ----------------------------------------------------------- 
     |                   =====================                   |
     |                        A N C O P T                        |
     |                   =====================                   |
     |               Approximate Normal Coordinate               |
     |                Rational Function Optimizer                |
      ----------------------------------------------------------- 

          ...................................................
          :                      SETUP                      :
          :.................................................:
          :   optimization level            normal          :
          :   max. optcycles                   200          :
          :   ANC micro-cycles                  20          :
          :   degrees of freedom                 9          :
          :.................................................:
          :   RF solver                   davidson          :
          :   write xtbopt.log                true          :
          :   linear?                        false          :
          :   energy convergence         0.5000000E-05 Eh   :
          :   grad. convergence          0.1000000E-02 Eh/α :
          :   maximium RF displ.         1.0000000          :
          :   Hlow (freq-cutoff)         0.1000000E-01      :
          :   Hmax (freq-cutoff)         5.0000000          :
          :   S6 in model hess.         20.0000000          :
          ...................................................

generating ANC from model Hessian ...
Using Lindh-Hessian (1995)
 Shifting diagonal of input Hessian by    0.0000000000000000     
 Lowest  eigenvalues of input Hessian
   -0.000000   -0.000000    0.000000    0.000000    0.000000    0.000000
    0.076548    0.187199    0.414397    0.650009    0.801722    1.119548
    1.169197    1.317644    1.904784
 Highest eigenvalues
    0.650009    0.801722    1.119548    1.169197    1.317644    1.904784


........................................................................
.............................. CYCLE    1 ..............................
........................................................................
   1     -9.5430138 -0.954301E+01  0.608E-05    6.49       0.0  T
   2     -9.5430138  0.270077E-10  0.685E-05    6.49     652.7  T
   3     -9.5430138 -0.845723E-11  0.714E-05    6.49     626.6  T
     SCC iter.                  ...        0 min,  0.001 sec
     gradient                   ...        0 min,  0.001 sec
 * total energy  :    -9.4380002 Eh     change        0.9589733E-09 Eh
   gradient norm :     0.1136458 Eh/α   predicted     0.0000000E+00 (-100.00%)
   displ. norm   :     0.2792762 α      lambda       -0.2492996E-01
   maximum displ.:     0.2461122 α      in ANC's #2, #4, #3, ...

........................................................................
.............................. CYCLE    2 ..............................
........................................................................
   1     -9.5554893 -0.955549E+01  0.218E+00    6.54       0.0  T
   2     -9.5483639  0.712543E-02  0.178E+00    6.43       1.0  T
   3     -9.5515994 -0.323552E-02  0.151E+00    6.49       1.0  T
   4     -9.5598100 -0.821056E-02  0.890E-01    6.48       1.0  T
   5     -9.5632396 -0.342969E-02  0.162E-01    6.50       1.0  T
   6     -9.5632470 -0.732703E-05  0.969E-02    6.50       1.0  T
   7     -9.5632520 -0.508047E-05  0.254E-02    6.51       1.8  T
   8     -9.5632546 -0.253393E-05  0.124E-02    6.50       3.6  T
   9     -9.5632551 -0.489612E-06  0.422E-03    6.51      10.6  T
  10     -9.5632551 -0.236970E-07  0.101E-03    6.51      44.4  T
  11     -9.5632551 -0.450928E-09  0.529E-04    6.51      84.6  T
  12     -9.5632551 -0.775453E-09  0.135E-04    6.51     330.5  T
     SCC iter.                  ...        0 min,  0.001 sec
     gradient                   ...        0 min,  0.001 sec
 * total energy  :    -9.4599859 Eh     change       -0.2198573E-01 Eh
   gradient norm :     0.0934576 Eh/α   predicted    -0.1343719E-01 ( -38.88%)
   displ. norm   :     0.6431755 α      lambda       -0.5122982E-01
   maximum displ.:     0.5012924 α      in ANC's #2, #4, #3, ...

........................................................................
.............................. CYCLE    3 ..............................
........................................................................
   1     -9.5832392 -0.958324E+01  0.304E+00    5.47       0.0  T
   2     -9.5863347 -0.309549E-02  0.177E+00    5.60       1.0  T
   3     -9.5754393  0.108954E-01  0.151E+00    5.51       1.0  T
   4     -9.5773347 -0.189536E-02  0.124E+00    5.61       1.0  T
   5     -9.5890688 -0.117341E-01  0.180E-01    5.59       1.0  T
   6     -9.5891306 -0.618005E-04  0.110E-01    5.59       1.0  T
   7     -9.5891315 -0.864676E-06  0.322E-02    5.59       1.4  T
   8     -9.5891341 -0.261599E-05  0.935E-03    5.59       4.8  T
   9     -9.5891341 -0.291575E-07  0.136E-03    5.59      33.0  T
  10     -9.5891341 -0.176851E-09  0.443E-04    5.59     101.0  T
  11     -9.5891341 -0.551662E-09  0.134E-04    5.59     332.5  T
     SCC iter.                  ...        0 min,  0.001 sec
     gradient                   ...        0 min,  0.001 sec
 * total energy  :    -9.4811639 Eh     change       -0.2117798E-01 Eh
   gradient norm :     0.0737341 Eh/α   predicted    -0.3621116E-01 (  70.98%)
   displ. norm   :     0.1155471 α      lambda       -0.6032057E-02
   maximum displ.:     0.0759620 α      in ANC's #1, #4, #6, ...

........................................................................
.............................. CYCLE    4 ..............................
........................................................................
   1     -9.5890536 -0.958905E+01  0.639E-01    6.00       0.0  T
   2     -9.5888931  0.160589E-03  0.430E-01    5.97       1.0  T
   3     -9.5875642  0.132886E-02  0.511E-01    6.00       1.0  T
   4     -9.5891060 -0.154179E-02  0.175E-01    5.97       1.0  T
   5     -9.5893139 -0.207914E-03  0.300E-02    5.98       1.5  T
   6     -9.5893157 -0.181926E-05  0.184E-02    5.98       2.4  T
   7     -9.5893161 -0.414533E-06  0.362E-03    5.98      12.4  T
   8     -9.5893161 -0.448046E-08  0.220E-03    5.98      20.4  T
   9     -9.5893161 -0.475717E-08  0.224E-04    5.98     200.0  T
  10     -9.5893161 -0.114664E-10  0.413E-05    5.98    1081.8  T
     SCC iter.                  ...        0 min,  0.001 sec
     gradient                   ...        0 min,  0.001 sec
 * total energy  :    -9.4847586 Eh     change       -0.3594708E-02 Eh
   gradient norm :     0.0382087 Eh/α   predicted    -0.3056296E-02 ( -14.98%)
   displ. norm   :     0.0840520 α      lambda       -0.2219235E-02
   maximum displ.:     0.0489823 α      in ANC's #3, #2, #6, ...

........................................................................
.............................. CYCLE    5 ..............................
........................................................................
   1     -9.5936318 -0.959363E+01  0.354E-01    6.14       0.0  T
   2     -9.5933683  0.263487E-03  0.291E-01    6.12       1.0  T
   3     -9.5932769  0.914686E-04  0.282E-01    6.14       1.0  T
   4     -9.5936962 -0.419352E-03  0.839E-02    6.12       1.0  T
   5     -9.5937363 -0.401053E-04  0.156E-02    6.13       2.9  T
   6     -9.5937365 -0.139175E-06  0.904E-03    6.13       4.9  T
   7     -9.5937366 -0.177329E-06  0.208E-03    6.13      21.5  T
   8     -9.5937366 -0.170537E-08  0.131E-03    6.13      34.0  T
   9     -9.5937366 -0.316206E-08  0.135E-04    6.13     331.9  T
  10     -9.5937366 -0.600409E-11  0.203E-05    6.13    2205.8  T
     SCC iter.                  ...        0 min,  0.001 sec
     gradient                   ...        0 min,  0.001 sec
 * total energy  :    -9.4865870 Eh     change       -0.1828375E-02 Eh
   gradient norm :     0.0326967 Eh/α   predicted    -0.1117457E-02 ( -38.88%)
   displ. norm   :     0.2149318 α      lambda       -0.4106338E-02
   maximum displ.:     0.1275323 α      in ANC's #2, #3, #6, ...

........................................................................
.............................. CYCLE    6 ..............................
........................................................................
   1     -9.5988502 -0.959885E+01  0.828E-01    6.33       0.0  T
   2     -9.5965326  0.231761E-02  0.758E-01    6.28       1.0  T
   3     -9.5974705 -0.937910E-03  0.637E-01    6.35       1.0  T
   4     -9.5994368 -0.196625E-02  0.183E-01    6.30       1.0  T
   5     -9.5995996 -0.162848E-03  0.393E-02    6.31       1.1  T
   6     -9.5996017 -0.210346E-05  0.903E-03    6.31       5.0  T
   7     -9.5996018 -0.185242E-07  0.492E-03    6.31       9.1  T
   8     -9.5996018 -0.438188E-07  0.321E-03    6.31      13.9  T
   9     -9.5996018 -0.250188E-07  0.318E-04    6.31     140.8  T
  10     -9.5996018 -0.587814E-10  0.448E-05    6.31     998.0  T
     SCC iter.                  ...        0 min,  0.001 sec
     gradient                   ...        0 min,  0.001 sec
 * total energy  :    -9.4891846 Eh     change       -0.2597586E-02 Eh
   gradient norm :     0.0268460 Eh/α   predicted    -0.2148020E-02 ( -17.31%)
   displ. norm   :     0.1068666 α      lambda       -0.1258804E-02
   maximum displ.:     0.0612405 α      in ANC's #3, #2, #5, ...

........................................................................
.............................. CYCLE    7 ..............................
........................................................................
   1     -9.6039524 -0.960395E+01  0.383E-01    6.30       0.0  T
   2     -9.6033284  0.623971E-03  0.371E-01    6.34       1.0  T
   3     -9.6037099 -0.381524E-03  0.299E-01    6.31       1.0  T
   4     -9.6041109 -0.400940E-03  0.838E-02    6.32       1.0  T
   5     -9.6041386 -0.277491E-04  0.215E-02    6.32       2.1  T
   6     -9.6041397 -0.106082E-05  0.430E-03    6.32      10.4  T
   7     -9.6041397 -0.220484E-07  0.245E-03    6.32      18.3  T
   8     -9.6041397 -0.137774E-07  0.107E-03    6.32      42.0  T
   9     -9.6041397 -0.316462E-08  0.137E-04    6.32     326.3  T
  10     -9.6041397 -0.522959E-11  0.197E-05    6.32    2271.1  T
     SCC iter.                  ...        0 min,  0.001 sec
     gradient                   ...        0 min,  0.001 sec
 * total energy  :    -9.4900591 Eh     change       -0.8745132E-03 Eh
   gradient norm :     0.0223437 Eh/α   predicted    -0.6365908E-03 ( -27.21%)
   displ. norm   :     0.1010023 α      lambda       -0.9635977E-03
   maximum displ.:     0.0656358 α      in ANC's #2, #7, #3, ...

........................................................................
.............................. CYCLE    8 ..............................
........................................................................
   1     -9.6040728 -0.960407E+01  0.427E-01    6.22       0.0  T
   2     -9.6030082  0.106455E-02  0.446E-01    6.27       1.0  T
   3     -9.6038447 -0.836512E-03  0.331E-01    6.22       1.0  T
   4     -9.6043179 -0.473209E-03  0.561E-02    6.24       1.0  T
   5     -9.6043280 -0.101199E-04  0.284E-02    6.24       1.6  T
   6     -9.6043301 -0.209001E-05  0.641E-03    6.24       7.0  T
   7     -9.6043302 -0.733975E-07  0.273E-03    6.24      16.4  T
   8     -9.6043302 -0.164121E-07  0.133E-03    6.24      33.5  T
   9     -9.6043302 -0.389260E-08  0.137E-04    6.24     326.8  T
  10     -9.6043302 -0.475353E-11  0.211E-05    6.24    2115.5  T
     SCC iter.                  ...        0 min,  0.001 sec
     gradient                   ...        0 min,  0.001 sec
 * total energy  :    -9.4906707 Eh     change       -0.6116459E-03 Eh
   gradient norm :     0.0178202 Eh/α   predicted    -0.4867131E-03 ( -20.43%)
   displ. norm   :     0.0589925 α      lambda       -0.6697334E-03
   maximum displ.:     0.0347645 α      in ANC's #1, #7, #8, ...

........................................................................
.............................. CYCLE    9 ..............................
........................................................................
   1     -9.6080182 -0.960802E+01  0.354E-01    6.31       0.0  T
   2     -9.6077929  0.225297E-03  0.263E-01    6.34       1.0  T
   3     -9.6073625  0.430457E-03  0.351E-01    6.30       1.0  T
   4     -9.6080750 -0.712526E-03  0.350E-02    6.33       1.3  T
   5     -9.6080764 -0.143072E-05  0.232E-02    6.33       1.9  T
   6     -9.6080779 -0.151579E-05  0.356E-03    6.33      12.6  T
   7     -9.6080780 -0.197490E-07  0.128E-03    6.33      35.0  T
   8     -9.6080780 -0.284057E-08  0.128E-04    6.33     348.2  T
   9     -9.6080780  0.247979E-11  0.808E-05    6.33     553.2  T
     SCC iter.                  ...        0 min,  0.001 sec
     gradient                   ...        0 min,  0.001 sec
 * total energy  :    -9.4910220 Eh     change       -0.3512798E-03 Eh
   gradient norm :     0.0114948 Eh/α   predicted    -0.3360304E-03 (  -4.34%)
   displ. norm   :     0.0251412 α      lambda       -0.2130497E-03
   maximum displ.:     0.0132942 α      in ANC's #3, #7, #1, ...

........................................................................
.............................. CYCLE   10 ..............................
........................................................................
   1     -9.6060597 -0.960606E+01  0.163E-01    6.35       0.0  T
   2     -9.6060159  0.438330E-04  0.120E-01    6.36       1.0  T
   3     -9.6059344  0.814762E-04  0.156E-01    6.34       1.0  T
   4     -9.6060727 -0.138329E-03  0.287E-02    6.36       1.6  T
   5     -9.6060756 -0.288403E-05  0.115E-02    6.35       3.9  T
   6     -9.6060759 -0.316653E-06  0.131E-03    6.35      34.2  T
   7     -9.6060759 -0.251995E-08  0.683E-04    6.35      65.5  T
   8     -9.6060759 -0.691811E-09  0.282E-04    6.35     158.8  T
     SCC iter.                  ...        0 min,  0.001 sec
     gradient                   ...        0 min,  0.001 sec
 * total energy  :    -9.4911594 Eh     change       -0.1374223E-03 Eh
   gradient norm :     0.0054981 Eh/α   predicted    -0.1065915E-03 ( -22.44%)
   displ. norm   :     0.0232236 α      lambda       -0.6362057E-04
   maximum displ.:     0.0183951 α      in ANC's #3, #2, #9, ...

........................................................................
.............................. CYCLE   11 ..............................
........................................................................
   1     -9.6051077 -0.960511E+01  0.962E-02    6.39       0.0  T
   2     -9.6050902  0.175581E-04  0.763E-02    6.38       1.0  T
   3     -9.6050780  0.121948E-04  0.790E-02    6.39       1.0  T
   4     -9.6051125 -0.345564E-04  0.229E-02    6.39       2.0  T
   5     -9.6051152 -0.265853E-05  0.283E-03    6.39      15.8  T
   6     -9.6051152 -0.110475E-08  0.666E-04    6.39      67.1  T
   7     -9.6051152 -0.123248E-08  0.280E-04    6.39     159.8  T
     SCC iter.                  ...        0 min,  0.001 sec
     gradient                   ...        0 min,  0.001 sec
 * total energy  :    -9.4911927 Eh     change       -0.3327358E-04 Eh
   gradient norm :     0.0018490 Eh/α   predicted    -0.3182798E-04 (  -4.34%)
   displ. norm   :     0.0055915 α      lambda       -0.4037836E-05
   maximum displ.:     0.0041896 α      in ANC's #3, #1, #5, ...

........................................................................
.............................. CYCLE   12 ..............................
........................................................................
   1     -9.6049423 -0.960494E+01  0.394E-02    6.40       0.0  T
   2     -9.6049364  0.599837E-05  0.373E-02    6.40       1.2  T
   3     -9.6049396 -0.325768E-05  0.291E-02    6.40       1.5  T
   4     -9.6049439 -0.433055E-05  0.598E-03    6.40       7.5  T
   5     -9.6049441 -0.146892E-06  0.756E-04    6.40      59.1  T
   6     -9.6049441  0.204867E-10  0.201E-04    6.40     222.9  T
     SCC iter.                  ...        0 min,  0.000 sec
     gradient                   ...        0 min,  0.001 sec
 * total energy  :    -9.4911971 Eh     change       -0.4372801E-05 Eh
   gradient norm :     0.0013974 Eh/α   predicted    -0.2017884E-05 ( -53.85%)
   displ. norm   :     0.0093359 α      lambda       -0.5184865E-05
   maximum displ.:     0.0061507 α      in ANC's #3, #2, #1, ...

........................................................................
.............................. CYCLE   13 ..............................
........................................................................
   1     -9.6048707 -0.960487E+01  0.750E-02    6.42       0.0  T
   2     -9.6048260  0.447022E-04  0.882E-02    6.41       1.0  T
   3     -9.6048708 -0.448014E-04  0.487E-02    6.42       1.0  T
   4     -9.6048812 -0.103951E-04  0.656E-03    6.42       6.8  T
   5     -9.6048813 -0.126214E-06  0.309E-03    6.42      14.5  T
   6     -9.6048813 -0.186066E-07  0.951E-04    6.42      47.0  T
   7     -9.6048813 -0.244183E-08  0.473E-04    6.42      94.5  T
     SCC iter.                  ...        0 min,  0.001 sec
     gradient                   ...        0 min,  0.001 sec
 * total energy  :    -9.4912023 Eh     change       -0.5196937E-05 Eh
   gradient norm :     0.0009838 Eh/α   predicted    -0.2592875E-05 ( -50.11%)
   displ. norm   :     0.0070036 α      lambda       -0.2996780E-05
   maximum displ.:     0.0049182 α      in ANC's #5, #3, #2, ...

........................................................................
.............................. CYCLE   14 ..............................
........................................................................
   1     -9.6049197 -0.960492E+01  0.683E-02    6.44       0.0  T
   2     -9.6048895  0.301826E-04  0.740E-02    6.43       1.0  T
   3     -9.6049161 -0.266589E-04  0.472E-02    6.44       1.0  T
   4     -9.6049268 -0.106614E-04  0.460E-03    6.44       9.7  T
   5     -9.6049269 -0.648781E-07  0.251E-03    6.44      17.8  T
   6     -9.6049269 -0.130338E-07  0.763E-04    6.44      58.6  T
   7     -9.6049269 -0.145334E-08  0.385E-04    6.44     116.3  T
     SCC iter.                  ...        0 min,  0.001 sec
     gradient                   ...        0 min,  0.001 sec
 * total energy  :    -9.4912056 Eh     change       -0.3363563E-05 Eh
   gradient norm :     0.0012178 Eh/α   predicted    -0.1496825E-05 ( -55.50%)
   displ. norm   :     0.0105304 α      lambda       -0.3903840E-05
   maximum displ.:     0.0085613 α      in ANC's #5, #3, #2, ...

........................................................................
.............................. CYCLE   15 ..............................
........................................................................
   1     -9.6049653 -0.960497E+01  0.108E-01    6.48       0.0  T
   2     -9.6048806  0.846413E-04  0.121E-01    6.47       1.0  T
   3     -9.6049604 -0.798080E-04  0.732E-02    6.48       1.0  T
   4     -9.6049852 -0.247764E-04  0.757E-03    6.48       5.9  T
   5     -9.6049853 -0.949350E-07  0.500E-03    6.48       9.0  T
   6     -9.6049853 -0.589124E-07  0.121E-03    6.48      36.9  T
   7     -9.6049854 -0.371053E-08  0.574E-04    6.48      77.9  T
   8     -9.6049854 -0.762036E-09  0.205E-04    6.48     218.0  T
     SCC iter.                  ...        0 min,  0.001 sec
     gradient                   ...        0 min,  0.001 sec
 * total energy  :    -9.4912100 Eh     change       -0.4325875E-05 Eh
   gradient norm :     0.0014784 Eh/α   predicted    -0.1951917E-05 ( -54.88%)
   displ. norm   :     0.0139926 α      lambda       -0.4708724E-05
   maximum displ.:     0.0129217 α      in ANC's #5, #3, #6, ...

........................................................................
.............................. CYCLE   16 ..............................
........................................................................
   1     -9.6050822 -0.960508E+01  0.146E-01    6.55       0.0  T
   2     -9.6049301  0.152028E-03  0.163E-01    6.53       1.0  T
   3     -9.6050701 -0.139969E-03  0.101E-01    6.55       1.0  T
   4     -9.6051180 -0.478604E-04  0.102E-02    6.54       4.4  T
   5     -9.6051181 -0.135267E-06  0.671E-03    6.54       6.7  T
   6     -9.6051182 -0.107957E-06  0.151E-03    6.54      29.5  T
   7     -9.6051182 -0.567712E-08  0.608E-04    6.54      73.6  T
   8     -9.6051182 -0.640512E-09  0.222E-04    6.54     201.1  T
     SCC iter.                  ...        0 min,  0.001 sec
     gradient                   ...        0 min,  0.001 sec
 * total energy  :    -9.4912152 Eh     change       -0.5231114E-05 Eh
   gradient norm :     0.0015033 Eh/α   predicted    -0.2353014E-05 ( -55.02%)
   displ. norm   :     0.0165332 α      lambda       -0.5154905E-05
   maximum displ.:     0.0148589 α      in ANC's #5, #3, #6, ...

........................................................................
.............................. CYCLE   17 ..............................
........................................................................
   1     -9.6050793 -0.960508E+01  0.178E-01    6.61       0.0  T
   2     -9.6048394  0.239931E-03  0.203E-01    6.60       1.0  T
   3     -9.6050674 -0.227971E-03  0.122E-01    6.61       1.0  T
   4     -9.6051355 -0.681225E-04  0.135E-02    6.61       3.3  T
   5     -9.6051357 -0.218273E-06  0.891E-03    6.61       5.0  T
   6     -9.6051359 -0.192144E-06  0.197E-03    6.61      22.6  T
   7     -9.6051359 -0.917804E-08  0.852E-04    6.61      52.5  T
   8     -9.6051359 -0.156693E-08  0.322E-04    6.61     138.8  T
     SCC iter.                  ...        0 min,  0.001 sec
     gradient                   ...        0 min,  0.001 sec
 * total energy  :    -9.4912204 Eh     change       -0.5225162E-05 Eh
   gradient norm :     0.0010301 Eh/α   predicted    -0.2577686E-05 ( -50.67%)
   displ. norm   :     0.0086735 α      lambda       -0.2434920E-05
   maximum displ.:     0.0070829 α      in ANC's #5, #1, #6, ...

........................................................................
.............................. CYCLE   18 ..............................
........................................................................
   1     -9.6051478 -0.960515E+01  0.860E-02    6.63       0.0  T
   2     -9.6050940  0.537757E-04  0.963E-02    6.63       1.0  T
   3     -9.6051438 -0.497678E-04  0.601E-02    6.63       1.0  T
   4     -9.6051604 -0.165644E-04  0.652E-03    6.63       6.9  T
   5     -9.6051604 -0.484277E-07  0.429E-03    6.63      10.4  T
   6     -9.6051605 -0.486128E-07  0.927E-04    6.63      48.2  T
   7     -9.6051605 -0.181514E-08  0.419E-04    6.63     106.7  T
     SCC iter.                  ...        0 min,  0.001 sec
     gradient                   ...        0 min,  0.001 sec
 * total energy  :    -9.4912226 Eh     change       -0.2216117E-05 Eh
   gradient norm :     0.0003817 Eh/α   predicted    -0.1218518E-05 ( -45.02%)
   displ. norm   :     0.0021427 α      lambda       -0.4456506E-06
   maximum displ.:     0.0013245 α      in ANC's #1, #4, #2, ...

   *** GEOMETRY OPTIMIZATION CONVERGED AFTER 18 ITERATIONS ***

------------------------------------------------------------------------
 total energy gain   :        -0.0532224 Eh      -33.3976 kcal/mol
 total RMSD          :         0.5496501 a0        0.2909 Å
 total power (kW/mol):        -7.7630837 (step)-2587.1168 (real)
------------------------------------------------------------------------

 ANCopt (total)                0 d,  0 h,  0 min,  0.054 sec
 optimizer setup                ...        0 min,  0.000 sec (  0.129%)
 model hessian                  ...        0 min,  0.000 sec (  0.427%)
 ANC generation                 ...        0 min,  0.000 sec (  0.176%)
 coordinate transformation      ...        0 min,  0.000 sec (  0.082%)
 single point calculation       ...        0 min,  0.052 sec ( 96.489%)
 optimization log               ...        0 min,  0.000 sec (  0.805%)
 hessian update                 ...        0 min,  0.000 sec (  0.074%)
 rational function              ...        0 min,  0.000 sec (  0.746%)

================
 final structure:
================
5
 xtb: 6.2.2 (9d81278992624c895f80dd42a50cac0aa55982e2)
C         0.50384476185260    0.03182088812277    0.02283957572560
C        -0.84195637160485    0.05881317696163    0.76243147601072
C        -0.73988771908925   -0.79666111113080   -0.33407078511545
N        -0.47520789556184    0.71444502301072   -0.60250420540412
H         1.55320822440334   -0.00841797696432    0.15130393878325

 Bond Distances (Angstroems)
 ---------------------------
C1-C2=1.5359         C1-C3=1.5364         C1-N4=1.3474         C1-H5=1.0580         C2-C1=1.5359         C2-C3=1.3945         
C2-N4=1.5580         C3-C1=1.5364         C3-C2=1.3945         C3-N4=1.5574         N4-C1=1.3474         N4-C2=1.5580         
N4-C3=1.5574         H5-C1=1.0580         
 C  H  Rav=1.0580 sigma=0.0000  Rmin=1.0580  Rmax=1.0580     1
 C  C  Rav=1.4889 sigma=0.0668  Rmin=1.3945  Rmax=1.5364     3
 N  C  Rav=1.4876 sigma=0.0991  Rmin=1.3474  Rmax=1.5580     3

 selected bond angles (degree)
 --------------------
C3-C1-C2= 53.99                N4-C1-C2= 65.03                N4-C1-C3= 64.99                H5-C1-C2=144.22                
H5-C1-C3=144.16                H5-C1-N4=142.78                C3-C2-C1= 63.03                N4-C2-C1= 51.63                
N4-C2-C3= 63.39                C2-C3-C1= 62.99                N4-C3-C1= 51.63                N4-C3-C2= 63.43                
C2-N4-C1= 63.34                C3-N4-C1= 63.38                C3-N4-C2= 53.18                

 selected dihedral angles (degree)
 ---------------------------------
C3-C2-C1-N4= 76.22            C3-C2-C1-H5=225.14            N4-C2-C1-C3=283.78            N4-C2-C1-H5=148.91            
C2-C3-C1-N4=283.69            C2-C3-C1-H5=134.96            N4-C3-C1-C2= 76.31            N4-C3-C1-H5=211.27            
C1-C3-C2-N4= 58.40            N4-C3-C2-C1=301.60            C2-N4-C1-C3= 60.10            C2-N4-C1-H5=209.94            
C3-N4-C1-C2=299.90            C3-N4-C1-H5=149.83            C1-N4-C2-C3=284.50            C3-N4-C2-C1= 75.50            
C1-N4-C3-C2= 75.42            C2-N4-C3-C1=284.58            
           -------------------------------------------------
          |                Final Singlepoint                |
           -------------------------------------------------

          ...................................................
          :                      SETUP                      :
          :.................................................:
          :  # basis functions                  17          :
          :  # atomic orbitals                  17          :
          :  # shells                            9          :
          :  # electrons                        18          :
          :  max. iterations                   250          :
          :  Hamiltonian                  GFN2-xTB          :
          :  restarted?                      false          :
          :  GBSA solvation                  false          :
          :  PC potential                    false          :
          :  electronic temp.          300.0000000     K    :
          :  accuracy                    1.0000000          :
          :  -> integral cutoff          0.2500000E+02      :
          :  -> integral neglect         0.1000000E-07      :
          :  -> SCF convergence          0.1000000E-05 Eh   :
          :  -> wf. convergence          0.1000000E-03 e    :
          :  Broyden damping             0.4000000          :
          ...................................................

 iter      E             dE          RMSdq      gap      omega  full diag
   1     -9.6051605 -0.960516E+01  0.134E-04    6.63       0.0  T
   2     -9.6051605  0.153710E-09  0.204E-04    6.63     219.4  T
   3     -9.6051605 -0.212964E-09  0.533E-05    6.63     839.7  T

   *** convergence criteria satisfied after 3 iterations ***

         #    Occupation            Energy/Eh            Energy/eV
      -------------------------------------------------------------
         1        2.0000           -0.7511018             -20.4385
       ...           ...                  ...                  ...
         4        2.0000           -0.6035298             -16.4229
         5        2.0000           -0.5392335             -14.6733
         6        2.0000           -0.4910960             -13.3634
         7        2.0000           -0.4586866             -12.4815
         8        2.0000           -0.4530911             -12.3292
         9        1.0000           -0.4166778             -11.3384
        10        1.0000           -0.4042831             -11.0011 (HOMO)
        11                         -0.1606371              -4.3712 (LUMO)
        12                         -0.1552885              -4.2256
        13                         -0.1099414              -2.9917
        14                         -0.0121709              -0.3312
        15                          0.0622021               1.6926
       ...                                ...                  ...
        17                          0.4751741              12.9301
      -------------------------------------------------------------
                  HL-Gap            0.2436459 Eh            6.6299 eV
             Fermi-level           -0.3586716 Eh           -9.7600 eV

 transition dipole moment (au) for excitation:           9          10
     X       Y       Z   
  -0.0235   0.1336   0.1819  total (au/Debye):    0.227   0.577
 dE (eV)             :    0.337
 oscillator strength :  0.60192E-03

 SCC (total)                   0 d,  0 h,  0 min,  0.003 sec
 SCC setup                      ...        0 min,  0.000 sec (  2.054%)
 Dispersion                     ...        0 min,  0.000 sec (  0.417%)
 integral evaluation            ...        0 min,  0.001 sec ( 30.221%)
 zeroth order Hamiltonian       ...        0 min,  0.000 sec (  0.395%)
 iterations                     ...        0 min,  0.000 sec ( 10.179%)
 molecular gradient             ...        0 min,  0.001 sec ( 31.901%)
 printout                       ...        0 min,  0.001 sec ( 24.610%)

         :::::::::::::::::::::::::::::::::::::::::::::::::::::
         ::                     SUMMARY                     ::
         :::::::::::::::::::::::::::::::::::::::::::::::::::::
         :: total energy              -9.491222637616 Eh    ::
         :: gradient norm              0.000385376484 Eh/a0 ::
         :: HOMO-LUMO gap              6.629943032059 eV    ::
         ::.................................................::
         :: SCC energy                -9.605160474338 Eh    ::
         :: -> isotropic ES            0.002336196506 Eh    ::
         :: -> anisotropic ES          0.002059870847 Eh    ::
         :: -> anisotropic XC          0.006817336511 Eh    ::
         :: -> dispersion             -0.001957512319 Eh    ::
         :: repulsion energy           0.113937809793 Eh    ::
         :: add. restraining           0.000000000000 Eh    ::
         :::::::::::::::::::::::::::::::::::::::::::::::::::::

           ------------------------------------------------- 
          |                Numerical Hessian                |
           ------------------------------------------------- 
step length          :   0.00500
SCC accuracy         :   0.30000
Hessian scale factor :   1.00000
frozen atoms in %    :   0.00000    0
RMS gradient         :   0.00039
estimated CPU  time      0.00 min
estimated wall time      0.00 min

writing file <hessian>.

 projected vibrational frequencies (cm-1)
eigval :       -0.00    -0.00    -0.00     0.00     0.00     0.00
eigval :      172.49   630.60   668.46   770.45   863.60   943.28
eigval :     1381.81  1562.05  3293.73
           -------------------------------------------------
          |                Property Printout                |
           -------------------------------------------------

    * Orbital Energies and Occupations

         #    Occupation            Energy/Eh            Energy/eV
      -------------------------------------------------------------
         1        2.0000           -0.7511018             -20.4385
         2        2.0000           -0.6363754             -17.3167
         3        2.0000           -0.6145479             -16.7227
         4        2.0000           -0.6035298             -16.4229
         5        2.0000           -0.5392335             -14.6733
         6        2.0000           -0.4910960             -13.3634
         7        2.0000           -0.4586865             -12.4815
         8        2.0000           -0.4530911             -12.3292
         9        1.0000           -0.4166779             -11.3384
        10        1.0000           -0.4042831             -11.0011 (HOMO)
        11                         -0.1606372              -4.3712 (LUMO)
        12                         -0.1552885              -4.2256
        13                         -0.1099415              -2.9917
        14                         -0.0121709              -0.3312
        15                          0.0622021               1.6926
        16                          0.3352945               9.1238
        17                          0.4751740              12.9301
      -------------------------------------------------------------
                  HL-Gap            0.2436460 Eh            6.6299 eV
             Fermi-level           -0.3586717 Eh           -9.7600 eV

     #   Z        covCN         q      C6AA      α(0)
     1   6 C      3.786     0.125    18.558     6.136
     2   6 C      2.849    -0.014    28.366     8.729
     3   6 C      2.849    -0.014    28.361     8.728
     4   7 N      2.700    -0.169    24.655     7.375
     5   1 H      0.927     0.072     2.060     2.244

 Mol. C6AA /au·bohr⁶  :        455.060523
 Mol. C8AA /au·bohr⁸  :      11798.955010
 Mol. α(0) /au        :         33.212276


Wiberg/Mayer (AO) data.
largest (>0.10) Wiberg bond orders for each atom
          total WBO             WBO to atom ...
     1  C   3.592        N    4 1.204    H    5 0.967    C    2 0.711    C    3 0.710
     2  C   2.629        C    3 1.169    N    4 0.740    C    1 0.711
     3  C   2.628        C    2 1.169    N    4 0.741    C    1 0.710
     4  N   2.696        C    1 1.204    C    3 0.741    C    2 0.740
     5  H   0.995        C    1 0.967

MOs/occ written to file <molden.input>


molecular dipole:
                 x           y           z       tot (Debye)
 q only:        0.526      -0.202       0.207
   full:        1.070      -0.050       0.138       2.745
molecular quadrupole (traceless):
                xx          xy          yy          xz          yz          zz
 q only:        0.830       0.272      -0.484      -0.130       0.366      -0.346
  q+dip:        1.704      -0.635      -1.322       0.577       1.628      -0.381
   full:        1.376      -0.575      -1.101       0.504       1.430      -0.274

           -------------------------------------------------
Molecule has the following symmetry elements: (sigma) 
It seems to be the Cs point group
          |                Geometry Summary                 |
           -------------------------------------------------

      molecular mass/u    :       51.0468517
   center of mass at/Å    :       -0.3533640       0.0297515      -0.0561697
  moments of inertia/u·Å² :        0.2572073E+02   0.3137220E+02   0.3373729E+02
rotational constants/cm⁻¹ :        0.6554102E+00   0.5373430E+00   0.4996735E+00

 * 3 selected distances

     #   Z        #   Z                                     value/Å
     2   6 C      3   6 C                                 1.3944789 (max)
     1   6 C      4   7 N                                 1.3474326
     1   6 C      5   1 H                                 1.0579631 (min)

 * 3 distinct bonds (by element types)

   Z      Z             #   av. dist./Å        max./Å        min./Å
   1 H    6 C           1     1.0579631     1.0579631     1.0579631
   6 C    6 C           1     1.3944789     1.3944789     1.3944789
   6 C    7 N           1     1.3474326     1.3474326     1.3474326

           -------------------------------------------------
          |               Frequency Printout                |
           -------------------------------------------------
 projected vibrational frequencies (cm-1)
eigval :       -0.00    -0.00    -0.00     0.00     0.00     0.00
eigval :      172.49   630.60   668.46   770.45   863.60   943.28
eigval :     1381.81  1562.05  3293.73
 reduced masses (amu)
   1: 12.51   2: 11.95   3: 11.47   4: 11.17   5: 12.61   6: 12.15   7: 12.64   8:  9.41
   9:  5.27  10: 10.27  11:  5.15  12: 12.08  13: 12.37  14: 12.09  15:  1.99
 IR intensities (amu)
   1:  0.15   2:  0.11   3:  0.15   4:  0.13   5:  0.16   6:  0.18   7:  1.01   8:  1.17
   9:  0.82  10:  0.46  11:  0.21  12:  0.21  13:  1.01  14:  0.22  15:  0.08
 Raman intensities (amu)
   1:  0.00   2:  0.00   3:  0.00   4:  0.00   5:  0.00   6:  0.00   7:  0.00   8:  0.00
   9:  0.00  10:  0.00  11:  0.00  12:  0.00  13:  0.00  14:  0.00  15:  0.00
 output can be read by thermo (or use thermo option).
 writing <g98.out> molden fake output.
 recommended (thermochemical) frequency scaling factor: 1.0
           -------------------------------------------------
          |             Thermodynamic Functions             |
           -------------------------------------------------

cs  symmetry found (for desy threshold:  0.10E+00) used in thermo

          ...................................................
          :                      SETUP                      :
          :.................................................:
          :  # frequencies                           9      :
          :  # imaginary freq.                       0      :
          :  linear?                             false      :
          :  only rotor calc.                    false      :
          :  symmetry                               cs      :
          :  rotational number                       1      :
          :  scaling factor                  1.0000000      :
          :  rotor cutoff                   50.0000000 cm⁻¹ :
          :  imag. cutoff                  -20.0000000 cm⁻¹ :
          :.................................................:

    mode    ω/cm⁻¹     T·S(HO)/kcal·mol⁻¹    T·S(FR)/kcal·mol⁻¹   T·S(vib)
   ------------------------------------------------------------------------
       1    172.49    -0.00000 ( 99.30%)     0.01063 (  0.70%)     0.00007
   ------------------------------------------------------------------------

   temp. (K)  partition function   enthalpy   heat capacity  entropy
                                   cal/mol     cal/K/mol   cal/K/mol   J/K/mol
 298.15  VIB   2.04                  678.919      5.604      3.693
         ROT  0.126E+05              888.752      2.981     21.744
         INT  0.257E+05             1567.672      8.584     25.437
         TR   0.353E+27             1481.254      4.968     37.697
         TOT                        3048.9254    13.5526    63.1340   264.1527

   temp. (K)  partition function   enthalpy   heat capacity  entropy
                                   cal/mol     cal/K/mol   cal/K/mol   J/K/mol
 120.00  VIB   1.15                   73.273      1.536      0.885
         ROT  0.322E+04              357.707      2.981     19.031
         INT  0.369E+04              430.979      4.517     19.916
         TR   0.901E+26              596.178      4.968     33.177
         TOT                        1027.1575     9.4850    53.0934   222.1429

   temp. (K)  partition function   enthalpy   heat capacity  entropy
                                   cal/mol     cal/K/mol   cal/K/mol   J/K/mol
 100.00  VIB   1.09                   45.373      1.255      0.632
         ROT  0.245E+04              298.089      2.981     18.488
         INT  0.267E+04              343.462      4.236     19.120
         TR   0.685E+26              496.815      4.968     32.272
         TOT                         840.2768     9.2039    51.3914   215.0217

   temp. (K)  partition function   enthalpy   heat capacity  entropy
                                   cal/mol     cal/K/mol   cal/K/mol   J/K/mol
  80.00  VIB   1.05                   23.249      0.948      0.386
         ROT  0.175E+04              238.471      2.981     17.823
         INT  0.183E+04              261.720      3.929     18.209
         TR   0.490E+26              397.452      4.968     31.164
         TOT                         659.1725     8.8968    49.3727   206.5755

   temp. (K)  partition function   enthalpy   heat capacity  entropy
                                   cal/mol     cal/K/mol   cal/K/mol   J/K/mol
  60.00  VIB   1.02                    8.012      0.561      0.169
         ROT  0.114E+04              178.853      2.981     16.965
         INT  0.116E+04              186.865      3.542     17.134
         TR   0.319E+26              298.089      4.968     29.735
         TOT                         484.9542     8.5104    46.8696   196.1024

   temp. (K)  partition function   enthalpy   heat capacity  entropy
                                   cal/mol     cal/K/mol   cal/K/mol   J/K/mol
  40.00  VIB   1.00                    0.999      0.155      0.031
         ROT   619.                  119.236      2.981     15.756
         INT   621.                  120.234      3.136     15.787
         TR   0.173E+26              198.726      4.968     27.722
         TOT                         318.9603     8.1043    43.5091   182.0419

   temp. (K)  partition function   enthalpy   heat capacity  entropy
                                   cal/mol     cal/K/mol   cal/K/mol   J/K/mol
  20.00  VIB   1.00                    0.002      0.001     -0.003
         ROT   219.                   59.618      2.981     13.690
         INT   219.                   59.620      2.982     13.687
         TR   0.613E+25               99.363      4.968     24.280
         TOT                         158.9828     7.9503    37.9673   158.8552

   temp. (K)  partition function   enthalpy   heat capacity  entropy
                                   cal/mol     cal/K/mol   cal/K/mol   J/K/mol
  10.00  VIB   1.00                    0.000      0.000     -0.008
         ROT   77.4                   29.809      2.981     11.624
         INT   77.4                   29.809      2.981     11.616
         TR   0.217E+25               49.681      4.968     20.838
         TOT                          79.4904     7.9490    32.4541   135.7880

       T/K    H(0)-H(T)+PV         H(T)/Eh          T*S/Eh         G(T)/Eh
   ------------------------------------------------------------------------
    298.15    0.485877E-02    0.282931E-01    0.299970E-01   -0.170391E-02
    120.00    0.163688E-02    0.250712E-01    0.101532E-01    0.149180E-01
    100.00    0.133907E-02    0.247734E-01    0.818974E-02    0.165836E-01
     80.00    0.105046E-02    0.244848E-01    0.629444E-02    0.181903E-01
     60.00    0.772824E-03    0.242071E-01    0.448149E-02    0.197257E-01
     40.00    0.508296E-03    0.239426E-01    0.277344E-02    0.211692E-01
     20.00    0.253355E-03    0.236877E-01    0.121009E-02    0.224776E-01
     10.00    0.126676E-03    0.235610E-01    0.517189E-03    0.230438E-01 (used)
   ------------------------------------------------------------------------

         :::::::::::::::::::::::::::::::::::::::::::::::::::::
         ::                  THERMODYNAMIC                  ::
         :::::::::::::::::::::::::::::::::::::::::::::::::::::
         :: total free energy          -9.468178826373 Eh   ::
         ::.................................................::
         :: total energy               -9.491222637752 Eh   ::
         :: zero point energy           0.023434324591 Eh   ::
         :: G(RRHO) w/o ZPVE           -0.000390513211 Eh   ::
         :: G(RRHO) contrib.            0.023043811379 Eh   ::
         :::::::::::::::::::::::::::::::::::::::::::::::::::::

optimized geometry written to: xtbopt.xyz


           -------------------------------------------------
          | TOTAL ENERGY               -9.491222637752 Eh   |
          | TOTAL ENTHALPY             -9.467661637146 Eh   |
          | TOTAL FREE ENERGY          -9.468178826373 Eh   |
          | GRADIENT NORM               0.000385326297 Eh/α |
          | HOMO-LUMO GAP               6.629944036650 eV   |
           -------------------------------------------------

------------------------------------------------------------------------
 * finished run on 2020/05/12 at 11:45:02.928     
------------------------------------------------------------------------
 total:
 * wall-time:     0 d,  0 h,  0 min,  0.165 sec
 *  cpu-time:     0 d,  0 h,  0 min,  0.164 sec
 * ratio c/w:     0.998 speedup
 SCF:
 * wall-time:     0 d,  0 h,  0 min,  0.006 sec
 *  cpu-time:     0 d,  0 h,  0 min,  0.006 sec
 * ratio c/w:     1.000 speedup
 ANC optimizer:
 * wall-time:     0 d,  0 h,  0 min,  0.058 sec
 *  cpu-time:     0 d,  0 h,  0 min,  0.058 sec
 * ratio c/w:     0.998 speedup
 numerical hessian:
 * wall-time:     0 d,  0 h,  0 min,  0.085 sec
 *  cpu-time:     0 d,  0 h,  0 min,  0.085 sec
 * ratio c/w:     0.997 speedup

