 Entering Gaussian System
 *********************************************
 Gaussian 98:
 frequency output generated by the xtb code
 *********************************************
                         Standard orientation:
 --------------------------------------------------------------------
  Center     Atomic     Atomic              Coordinates (Angstroms)
  Number     Number      Type              X           Y           Z
 --------------------------------------------------------------------
    1          8             0        1.527974   -0.037814    0.017064
    2          6             0        0.352748   -0.008726    0.003694
    3          6             0       -0.956731   -0.640413   -0.014988
    4          6             0       -0.923991    0.686954   -0.005771
 --------------------------------------------------------------------
     1 basis functions        1 primitive gaussians
     1 alpha electrons        1 beta electrons

 Harmonic frequencies (cm**-1), IR intensities (KM/Mole),
 Raman scattering activities (A**4/amu), Raman depolarization ratios,
 reduced masses (AMU), force constants (mDyne/A) and normal coordinates:
                      1                      2                      3
                        a                      a                      a 
 Frequencies --   427.1924               496.1457               837.2050
 Red. masses --    12.9486                12.6336                12.0193
 Frc consts  --     0.0000                 0.0000                 0.0000
 IR Inten    --     0.4380                 0.6651                 0.0939
 Raman Activ --     0.0000                 0.0000                 0.0000
 Depolar     --     0.0000                 0.0000                 0.0000
 Atom AN      X      Y      Z        X      Y      Z        X      Y      Z
   1   8    -0.01  -0.48  -0.00    -0.00  -0.00   0.40    -0.00  -0.05  -0.00
   2   6     0.02   0.73   0.01     0.01   0.01  -0.87    -0.01  -0.48  -0.00
   3   6     0.33  -0.09   0.00    -0.00  -0.00   0.21     0.57   0.25   0.01
   4   6    -0.33  -0.08  -0.00    -0.00  -0.00   0.21    -0.56   0.28  -0.00
                      4                      5                      6
                        a                      a                      a 
 Frequencies --   921.6569              1640.3327              2071.5796
 Red. masses --    13.4827                12.2525                13.0592
 Frc consts  --     0.0000                 0.0000                 0.0000
 IR Inten    --     0.0319                 0.1895                 2.5142
 Raman Activ --     0.0000                 0.0000                 0.0000
 Depolar     --     0.0000                 0.0000                 0.0000
 Atom AN      X      Y      Z        X      Y      Z        X      Y      Z
   1   8    -0.61   0.02  -0.01     0.25  -0.01   0.00     0.51  -0.01   0.01
   2   6    -0.30   0.01  -0.00    -0.13   0.00  -0.00    -0.81   0.02  -0.01
   3   6     0.50  -0.15   0.00    -0.09  -0.67  -0.01     0.11   0.16   0.00
   4   6     0.50   0.12   0.01    -0.06   0.68   0.00     0.11  -0.16   0.00
