4
 energy: -10.045537178000 gnorm: 0.283321997333 xtb: 6.2.2 (9d81278992624c895f80dd42a50cac0aa55982e2)
O         1.40274800000000   -0.03271500000000   -0.27090100000000
C         0.27642800000000   -0.01063600000000    0.54989500000000
C        -0.85824000000000   -0.73449400000000   -0.14474800000000
C        -0.82093600000000    0.77784500000000   -0.13424600000000
4
 energy: -10.131428242341 gnorm: 0.235160481231 xtb: 6.2.2 (9d81278992624c895f80dd42a50cac0aa55982e2)
O         1.46514815369017   -0.03486080253044   -0.18350668159560
C         0.31364502110742   -0.01044361989809    0.38994215450977
C        -0.90712797163132   -0.69620532559449   -0.10820943375419
C        -0.87166520316627    0.74150974802301   -0.09822603915998
4
 energy: -10.145374153665 gnorm: 0.504647255831 xtb: 6.2.2 (9d81278992624c895f80dd42a50cac0aa55982e2)
O         1.46381916614005   -0.03584822676226   -0.03674829527786
C         0.41043710902767   -0.01119955975068    0.15501782700278
C        -0.95191545247899   -0.57604707223766   -0.06329818962944
C        -0.92234082268873    0.62309485875060   -0.05497134209548
4
 energy: -10.189448805184 gnorm: 0.111576360310 xtb: 6.2.2 (9d81278992624c895f80dd42a50cac0aa55982e2)
O         1.58618305073459   -0.03886834432298   -0.03650761402543
C         0.36367308985861   -0.00974202960616    0.11123929213757
C        -0.99099749436165   -0.62727247510747   -0.04189054433544
C        -0.95885864623154    0.67588284903661   -0.03284113377670
4
 energy: -10.194725573006 gnorm: 0.056843489072 xtb: 6.2.2 (9d81278992624c895f80dd42a50cac0aa55982e2)
O         1.51764449385637   -0.03713359994933   -0.04307655882640
C         0.34966761337687   -0.00948366594298    0.12385625280468
C        -0.95040293192061   -0.65579173596015   -0.04510603691077
C        -0.91690917531262    0.70240900185247   -0.03567365706751
4
 energy: -10.198709193886 gnorm: 0.022369799288 xtb: 6.2.2 (9d81278992624c895f80dd42a50cac0aa55982e2)
O         1.53016516859796   -0.03764717971523   -0.01325552406014
C         0.35562614520180   -0.00923169002502    0.06614541125745
C        -0.95933291397801   -0.64302481260691   -0.03107236321491
C        -0.92645839982174    0.68990368234717   -0.02181752398240
4
 energy: -10.199845687894 gnorm: 0.008372075113 xtb: 6.2.2 (9d81278992624c895f80dd42a50cac0aa55982e2)
O         1.53145295149446   -0.03784644824117    0.01087108866595
C         0.35445987196934   -0.00886013918395    0.01679736235466
C        -0.95926654061278   -0.63795199647096   -0.01842587175609
C        -0.92664628285102    0.68465858389608   -0.00924257926453
4
 energy: -10.199931348487 gnorm: 0.002298893492 xtb: 6.2.2 (9d81278992624c895f80dd42a50cac0aa55982e2)
O         1.52820494914627   -0.03780058848881    0.01618055335275
C         0.35321177173359   -0.00875353364137    0.00574091198023
C        -0.95706604748045   -0.63982712621261   -0.01556421013091
C        -0.92435067339941    0.68638124834279   -0.00635725520207
4
 energy: -10.199934618978 gnorm: 0.000372402420 xtb: 6.2.2 (9d81278992624c895f80dd42a50cac0aa55982e2)
O         1.52797445985421   -0.03780636242703    0.01706945627735
C         0.35274779830839   -0.00872409474199    0.00369530884769
C        -0.95672807165323   -0.64041847920272   -0.01499206971511
C        -0.92399418650938    0.68694893637174   -0.00577269540993
