$hessian                                                                        
        1.3769609574   0.0335678414  -0.0623238991  -0.9641294868   0.0887272676
       -0.0857947130  -0.0944416526   0.0038926990  -0.0032443172   0.0289597627
       -0.0003929652   0.0002540562  -0.3473495807  -0.1257948427   0.1511088731
        0.0335678414   0.0521254855  -0.0577636840   0.0691846662  -0.0214394138
        0.0125071076   0.0124745357   0.0055954753  -0.0012304692  -0.0075216813
        0.0003528001   0.0001045411  -0.1077053620  -0.0366343470   0.0463825045
       -0.0623238991  -0.0577636840   0.0700820244  -0.0632297433   0.0120431067
       -0.0222819535  -0.0129675827  -0.0011556916   0.0060837222   0.0082555824
        0.0001083427   0.0002279694   0.1302656427   0.0467679262  -0.0541117625
       -0.9641294868   0.0691846662  -0.0632297433   1.5804404609  -0.0742434052
        0.0617918993  -0.4796533254  -0.0100729789   0.0174244835  -0.1011811265
        0.0020125017  -0.0013714132  -0.0354765222   0.0131192161  -0.0146152264
        0.0887272676  -0.0214394138   0.0120431067  -0.0742434052   0.0667873176
       -0.0109419399  -0.0150219799  -0.0460002935  -0.0002469902   0.0057157417
        0.0102539101   0.0002843990  -0.0051776242  -0.0096015204  -0.0011385756
       -0.0857947130   0.0125071076  -0.0222819535   0.0617918993  -0.0109419399
        0.0676071282   0.0231526345  -0.0002759363  -0.0462751420  -0.0054917889
        0.0002791452   0.0101811462   0.0063419681  -0.0015683767  -0.0092311789
       -0.0944416526   0.0124745357  -0.0129675827  -0.4796533254  -0.0150219799
        0.0231526345   1.3017279687  -0.0077784295  -0.0032819443  -0.7355680082
        0.0123378526  -0.0090488516   0.0079350175  -0.0020119789   0.0021457441
        0.0038926990   0.0055954753  -0.0011556916  -0.0100729789  -0.0460002935
       -0.0002759363  -0.0077784295   0.0494497373   0.0011629823   0.0137550264
       -0.0164869132  -0.0005841489   0.0002036829   0.0074419941   0.0008527944
       -0.0032443172  -0.0012304692   0.0060837222   0.0174244835  -0.0002469902
       -0.0462751420  -0.0032819443   0.0011629823   0.0491708110  -0.0107457465
       -0.0005680087  -0.0161670645  -0.0001524755   0.0008824858   0.0071876734
        0.0289597627  -0.0075216813   0.0082555824  -0.1011811265   0.0057157417
       -0.0054917889  -0.7355680082   0.0137550264  -0.0107457465   0.8113768742
       -0.0138968739   0.0100968221  -0.0035875022   0.0019477870  -0.0021148691
       -0.0003929652   0.0003528001   0.0001083427   0.0020125017   0.0102539101
        0.0002791452   0.0123378526  -0.0164869132  -0.0005680087  -0.0138968739
        0.0074068155   0.0002367501  -0.0000605152  -0.0015266124  -0.0000562294
        0.0002540562   0.0001045411   0.0002279694  -0.0013714132   0.0002843990
        0.0101811462  -0.0090488516  -0.0005841489  -0.0161670645   0.0100968221
        0.0002367501   0.0072017246   0.0000693865  -0.0000415413  -0.0014437758
       -0.3473495807  -0.1077053620   0.1302656427  -0.0354765222  -0.0051776242
        0.0063419681   0.0079350175   0.0002036829  -0.0001524755  -0.0035875022
       -0.0000605152   0.0000693865   0.3784785876   0.1127398185  -0.1365245217
       -0.1257948427  -0.0366343470   0.0467679262   0.0131192161  -0.0096015204
       -0.0015683767  -0.0020119789   0.0074419941   0.0008824858   0.0019477870
       -0.0015266124  -0.0000415413   0.1127398185   0.0403204857  -0.0460404940
        0.1511088731   0.0463825045  -0.0541117625  -0.0146152264  -0.0011385756
       -0.0092311789   0.0021457441   0.0008527944   0.0071876734  -0.0021148691
       -0.0000562294  -0.0014437758  -0.1365245217  -0.0460404940   0.0575990439
