[Molden Format]
[Title]
[Atoms] AU
N      1     7  0.24555461766026E+01 -0.24492304374087E+00  0.24943834265555E+00
C      2     6  0.23735893398735E+00 -0.16148725903018E-01  0.24018586380774E-01
C      3     6 -0.22195971173454E+01 -0.40978043281811E-01  0.83270171187281E-01
C      4     6 -0.45994931697992E+01  0.87386562982416E-03  0.52555329468833E-01
H      5     1  0.41261851765481E+01  0.30117594729258E+00 -0.40928431941839E+00
[GTO]
           1 0
 s           4   1.0000000000000000     
   63.594024466941008      -0.19234388414721629     
   10.951417231523665      -0.23478107924953728     
  0.87999310257376984       0.37593753901700888     
  0.33538715296521110       0.14982889271862770     
 p           4   1.0000000000000000     
   7.2965040481495080       0.97658666315667420     
   1.8918745450712575       0.90372226730345739     
  0.66694432110824120       0.47404958461536373     
  0.26552202674130870        7.1516067715011844E-002

           2 0
 s           4   1.0000000000000000     
   51.049363095579913      -0.16312063210127389     
   8.7911227406887544      -0.19911024581000730     
  0.70640422258929825       0.31882047753655751     
  0.26922813413411617       0.12706504184240380     
 p           4   1.0000000000000000     
   5.8263656140800002       0.73716451545209605     
   1.5106896018720002       0.68216371614850257     
  0.53256483288000001       0.35783053929253711     
  0.21202323690600003        5.3983030275847881E-002

           3 0
 s           4   1.0000000000000000     
   51.049363095579913      -0.16312063210127389     
   8.7911227406887544      -0.19911024581000730     
  0.70640422258929825       0.31882047753655751     
  0.26922813413411617       0.12706504184240380     
 p           4   1.0000000000000000     
   5.8263656140800002       0.73716451545209605     
   1.5106896018720002       0.68216371614850257     
  0.53256483288000001       0.35783053929253711     
  0.21202323690600003        5.3983030275847881E-002

           4 0
 s           4   1.0000000000000000     
   51.049363095579913      -0.16312063210127389     
   8.7911227406887544      -0.19911024581000730     
  0.70640422258929825       0.31882047753655751     
  0.26922813413411617       0.12706504184240380     
 p           4   1.0000000000000000     
   5.8263656140800002       0.73716451545209605     
   1.5106896018720002       0.68216371614850257     
  0.53256483288000001       0.35783053929253711     
  0.21202323690600003        5.3983030275847881E-002

           5 0
 s           3   1.0000000000000000     
   3.3702276975336001       0.27359110588908298     
  0.61389118221497996       0.26460540653860526     
  0.16614291148415999        8.2465947534082318E-002

[MO]
Sym=     1a
Ene=  -0.68890251665840352     
Spin= Alpha
Occup=     2.00000000
           1  0.53860370224656928     
           2 -0.20088757003182114     
           3   3.9168234476542337E-002
           4  -4.1729891105702480E-002
           5  0.44596591730661250     
           6  0.19965024346735977     
           7  -1.6590709060763400E-002
           8   1.5485909343939635E-002
           9   6.2679541933410313E-002
          10   6.8548531918597028E-002
          11  -8.9721108603837692E-004
          12   4.5714255150133453E-005
          13  -5.0245426325104840E-003
          14   5.6896399218482000E-003
          15  -9.6289525246399921E-005
          16   3.5687834228788607E-005
          17   9.4350912233671702E-002
Sym=     2a
Ene=  -0.63814126010548899     
Spin= Alpha
Occup=     2.00000000
           1 -0.25663066777307092     
           2 -0.15353377782294439     
           3  -3.1385180928903952E-002
           4   3.8277836977854654E-002
           5  0.34895293749854234     
           6 -0.28280339497946655     
           7  -8.2912446613194763E-003
           8   1.3177347373755473E-002
           9  0.45819383021884041     
          10   7.4779437603341950E-002
          11   3.2257753445196426E-003
          12  -5.0999648943274630E-003
          13  0.22672722422641983     
          14  0.10282474783207590     
          15  -8.2913603752762517E-004
          16   6.8760666389115424E-005
          17 -0.15753056834576501     
Sym=     3a
Ene=  -0.60584066336642461     
Spin= Alpha
Occup=     2.00000000
           1 -0.24425535486245895     
           2 -0.31544570692049295     
           3  -6.5681000196334563E-002
           4   8.1513547455502933E-002
           5  0.17950323489729997     
           6   2.5625763007996075E-002
           7  -4.0045964407024452E-002
           8   4.6516498342407064E-002
           9 -0.25802254992129409     
          10  0.24811483776396759     
          11  -1.2083342362498230E-002
          12   1.1870319416616036E-002
          13 -0.45269016718662386     
          14 -0.11180481176763860     
          15  -1.7084933515502666E-004
          16   9.9251635453584137E-004
          17 -0.28748196211910654     
Sym=     4a
Ene=  -0.57166229674948921     
Spin= Alpha
Occup=     2.00000000
           1   9.2837666495002753E-003
           2  0.35314270862446928     
           3  0.14259829345612166     
           4 -0.17116720503741381     
           5  0.12059648846292030     
           6 -0.32194980314722010     
           7  0.12098681036781389     
           8 -0.13476225917362925     
           9   8.2813820307883021E-002
          10  0.31848057520360257     
          11   3.1959117803796323E-002
          12  -3.9769374460172327E-002
          13 -0.37070323560936885     
          14  -2.3865914008727219E-002
          15   8.1991482098772647E-003
          16  -9.4278320464146938E-003
          17  0.30170208844979385     
Sym=     5a
Ene=  -0.53793421079864412     
Spin= Alpha
Occup=     2.00000000
           1  -6.7594444362886232E-004
           2   6.9104537098808308E-003
           3  0.48755130254630036     
           4  0.42030194357987843     
           5   1.1233187835893775E-003
           6   5.8089767354701409E-003
           7  0.42009965323157544     
           8  0.36217806818403220     
           9   4.7913109291629005E-004
          10   9.7584610497245883E-004
          11  0.14960869421538289     
          12  0.12896225202224368     
          13   8.3495109551419910E-004
          14   3.8566269630167690E-004
          15   4.3073769924562931E-002
          16   3.7132367864493213E-002
          17   7.3759317144932870E-005
Sym=     6a
Ene=  -0.53319078142500687     
Spin= Alpha
Occup=     2.00000000
           1  0.23543818234265923     
           2  0.21337246331167570     
           3 -0.37997862637273239     
           4  0.43740171925862609     
           5  -6.7615806504629700E-002
           6 -0.15987579352974415     
           7 -0.32600075818654717     
           8  0.38103743822676034     
           9   7.3633345678343856E-002
          10   8.9639225387471363E-002
          11 -0.12109078700468202     
          12  0.13997981554130595     
          13 -0.10687447037309988     
          14   1.3019999988676692E-002
          15  -3.6193458230642253E-002
          16   4.1925563157420478E-002
          17   7.8611441889605907E-002
Sym=     7a
Ene=  -0.42304921506325177     
Spin= Alpha
Occup=     2.00000000
           1 -0.16454586890200845     
           2  -5.9590224561974575E-002
           3  0.29229742472540332     
           4 -0.33562462638666768     
           5   1.3929364989059053E-002
           6   1.8930634968768227E-002
           7 -0.11335974591117250     
           8  0.13033375588032597     
           9   5.5421961601869281E-003
          10  -8.6882895509017982E-003
          11 -0.39640699554869430     
          12  0.45648951072890004     
          13   6.5010734235057448E-003
          14  -1.0739616367603018E-002
          15 -0.31002728407258806     
          16  0.35705925301045388     
          17   8.3932033817330401E-002
Sym=     8a
Ene=  -0.41921766232817725     
Spin= Alpha
Occup=     2.00000000
           1   2.4531124278219583E-004
           2  -5.8020016856870247E-003
           3 -0.35029432221687834     
           4 -0.30448499279177316     
           5  -1.0662578924381852E-004
           6   1.6514721349880843E-003
           7   9.5935672907029576E-002
           8   8.3210547473746649E-002
           9   1.2129998057539484E-003
          10   3.2587320125668454E-003
          11  0.46092112779261579     
          12  0.40020275672546052     
          13  -1.1005798372084880E-003
          14   3.5512223962114050E-003
          15  0.37417950758246643     
          16  0.32492530347438808     
          17  -1.8619649310889385E-004
Sym=     9a
Ene=  -0.39459657742603388     
Spin= Alpha
Occup=     2.00000000
           1   4.8828421569661391E-002
           2  -6.8570377179574177E-002
           3   2.2970672811406145E-002
           4  -2.2592508322041748E-002
           5 -0.15208867337797147     
           6  0.13259957515004817     
           7   1.3237746205725907E-002
           8  -1.8864014475986280E-002
           9  0.23505405735862986     
          10 -0.21160368971767946     
          11   4.2022731319369825E-003
          12  -4.2702098961927689E-003
          13 -0.61719131077002498     
          14  0.67306853318545656     
          15  -1.2537659068140611E-002
          16   8.3345655615584182E-003
          17  -6.0738690923524005E-002
Sym=    10a
Ene=  -0.29918441370552717     
Spin= Alpha
Occup=     0.00000000
           1  0.20998821202482609     
           2  0.10008149778624181     
           3 -0.31715046922677348     
           4  0.36399444131082098     
           5   3.0722412664601278E-002
           6  -9.4699351190379293E-004
           7  0.42861741388329494     
           8 -0.49426741390227052     
           9  -1.0924878742114562E-005
          10   3.1650027397617697E-003
          11   3.0784938614107707E-002
          12  -3.5521745490904554E-002
          13   2.8398312798766428E-003
          14  -1.9599302509392961E-002
          15 -0.43181677038263122     
          16  0.49814135576552443     
          17 -0.18096370649794924     
Sym=    11a
Ene=  -0.28645116341659393     
Spin= Alpha
Occup=     0.00000000
           1   4.5411947834685707E-005
           2   6.4635620051829868E-003
           3  0.43339839984568912     
           4  0.37569059255777915     
           5  -7.4687994578236984E-004
           6  -6.6893786616851088E-003
           7 -0.48197237193816111     
           8 -0.41792584772960600     
           9   1.4618389757123864E-004
          10  -7.4591029563932280E-005
          11  -8.8452001013591616E-002
          12  -7.6684388617807783E-002
          13   1.5637827326873480E-004
          14   2.0895529839121754E-003
          15  0.50595913338285547     
          16  0.43875737614366173     
          17  -1.7820483950392886E-004
Sym=    12a
Ene=  -0.10666196161228483     
Spin= Alpha
Occup=     0.00000000
           1  0.19961835912144574     
           2  0.11986019406888618     
           3 -0.12236486932069661     
           4  0.14073703719469899     
           5   5.0163587151790673E-004
           6   1.3074190297069292E-002
           7  0.36590745916055512     
           8 -0.42534891446965639     
           9   4.6875108476171025E-002
          10   1.7040135439131663E-002
          11 -0.54678378309722520     
          12  0.63462805217502838     
          13  -3.5091718289353182E-004
          14  -1.0407044753368106E-002
          15  0.41288816183636551     
          16 -0.47923869435438188     
          17 -0.24078929153782172     
Sym=    13a
Ene=   -9.5044317334716841E-002
Spin= Alpha
Occup=     0.00000000
           1   2.9796518273322381E-003
           2   2.4523478980634831E-003
           3  0.25050306182842041     
           4  0.21388831794852584     
           5  -4.8151673060850050E-003
           6  -6.0829893465899516E-003
           7 -0.47761840139849088     
           8 -0.41113744294256116     
           9   4.3094494534602033E-003
          10   7.0183864076500584E-003
          11  0.63529556450665314     
          12  0.54639747213418954     
          13  -3.3753514839114711E-004
          14  -5.7904199696913001E-003
          15 -0.46078923698529034     
          16 -0.39632280306382583     
          17  -2.3332956447025674E-003
Sym=    14a
Ene=    2.7714526193852847E-002
Spin= Alpha
Occup=     0.00000000
           1  0.83909918710504228     
           2  0.14070750899504661     
           3  0.29518829176604183     
           4 -0.34591160210216731     
           5 -0.60116981470457087     
           6 -0.10247017119487707     
           7  -9.5685131487042538E-002
           8  0.11901883370193375     
           9  0.43268552280771744     
          10  0.21826333651598115     
          11   7.6867489390359131E-002
          12  -9.8815390055519065E-002
          13  -7.1033953837376540E-002
          14 -0.23995338854937612     
          15  -3.8462189038896415E-002
          16   5.0682457879925202E-002
          17 -0.86504144523304616     
Sym=    15a
Ene=   0.29154123431665657     
Spin= Alpha
Occup=     0.00000000
           1  0.25082111928319833     
           2  0.65579311659279071     
           3  0.15329570628498093     
           4 -0.18634893221776622     
           5  0.72119785464432329     
           6 -0.32332212324294740     
           7 -0.11392264542134764     
           8  0.13188620394294157     
           9 -0.90423694473944294     
          10 -0.15440436366545671     
          11   2.7873798561557250E-002
          12  -2.5625058219500538E-002
          13  0.28040083266654503     
          14  0.50361572782779729     
          15  -1.8322908158539750E-002
          16   1.5396558378966503E-002
          17 -0.65873884395770632     
Sym=    16a
Ene=   0.84144212249305450     
Spin= Alpha
Occup=     0.00000000
           1  0.41980094603980062     
           2 -0.83280637171391503     
           3  -1.3658098508282813E-003
           4   1.6147956281077083E-002
           5 -0.75876646649788759     
           6 -0.61949331236643312     
           7  0.10359547467320142     
           8 -0.10912906782017619     
           9 -0.68300851998437406     
          10  0.72993964831060454     
          11  -4.4033974227633693E-002
          12   4.4478738638746032E-002
          13  0.62183482872725238     
          14  0.71824409494526065     
          15  -4.0895417351370384E-003
          16  -2.7039229427946001E-004
          17  0.35221583261404393     
Sym=    17a
Ene=    1.3926283311825423     
Spin= Alpha
Occup=     0.00000000
           1  0.56119229519507385     
           2 -0.67336081197820918     
           3   4.6504709441197493E-002
           4  -4.1308960491562380E-002
           5  0.14594403580195667     
           6  -1.3266874781907441     
           7   5.9786862711897149E-002
           8  -4.8844896420418220E-002
           9 -0.21561113820753305     
          10  -1.2784974179154194     
          11  -1.7387237163585648E-002
          12   3.2515499720140985E-002
          13 -0.59919897650230747     
          14 -0.56237743027927889     
          15   1.9562717305834518E-002
          16  -1.9109016300127037E-002
          17  0.20191916487424469     
