5
 energy: -9.439081619025 gnorm: 0.282584596778 xtb: 6.2.2 (9d81278992624c895f80dd42a50cac0aa55982e2)
N         0.97933500000000   -0.31419600000000   -0.27659000000000
C        -0.12887400000000    0.21128100000000    0.49931500000000
C        -1.28074600000000   -0.77080100000000    0.44850000000000
C        -1.30451700000000    0.46690700000000   -0.42124800000000
H         1.73480200000000    0.40680900000000   -0.24997800000000
5
 energy: -9.517764175727 gnorm: 0.202126274991 xtb: 6.2.2 (9d81278992624c895f80dd42a50cac0aa55982e2)
N         1.01159728940100   -0.24978713006270   -0.27185801029257
C        -0.09842555373812    0.08395984471408    0.37898341905601
C        -1.35184418224163   -0.69278852908109    0.49857421967531
C        -1.33947861405000    0.43432280711370   -0.39117567087506
H         1.77815106062874    0.42429300731600   -0.21452495756369
5
 energy: -9.539633311909 gnorm: 0.425274622548 xtb: 6.2.2 (9d81278992624c895f80dd42a50cac0aa55982e2)
N         0.97306903663777   -0.18233382373834   -0.16424043885038
C        -0.04670704777683   -0.03603724670888    0.20582547682413
C        -1.28492390951400   -0.58785616116712    0.47682164559159
C        -1.42675531345777    0.40886738462777   -0.32354971201269
H         1.78531723411083    0.39735984698658   -0.19485797155266
5
 energy: -9.579211152212 gnorm: 0.123479524608 xtb: 6.2.2 (9d81278992624c895f80dd42a50cac0aa55982e2)
N         1.09011437121072   -0.18747457214821   -0.13915570434371
C        -0.11073301653846   -0.08052280632621    0.16898026580841
C        -1.31208278115399   -0.57701147792030    0.49492914858087
C        -1.53103876760134    0.44184968847202   -0.30798337305773
H         1.86374019408307    0.40315916792269   -0.21677133698783
5
 energy: -9.588153049914 gnorm: 0.088643049902 xtb: 6.2.2 (9d81278992624c895f80dd42a50cac0aa55982e2)
N         1.11249788999752   -0.19738217025075   -0.11682987713161
C        -0.09289939407255   -0.10447087337678    0.09855350391156
C        -1.28489227774251   -0.56024013055365    0.50161371779753
C        -1.63291954020658    0.46136384250004   -0.29317065539831
H         1.89821332202411    0.40072933168113   -0.19016768917917
5
 energy: -9.603728405482 gnorm: 0.079349031816 xtb: 6.2.2 (9d81278992624c895f80dd42a50cac0aa55982e2)
N         1.17297537461007   -0.25455170934724    0.03081653310118
C        -0.04411742398851   -0.21417939723469    0.05570588239349
C        -1.27463478260798   -0.48867538362683    0.45039541010102
C        -1.73510964882004    0.49532127621096   -0.27239163807893
H         1.88088648080646    0.46208521399780   -0.26452718751675
5
 energy: -9.617382704111 gnorm: 0.107404209270 xtb: 6.2.2 (9d81278992624c895f80dd42a50cac0aa55982e2)
N         1.21200923319583   -0.27086223255067    0.11386720609739
C         0.03501568102287   -0.30596016183179    0.01085709609571
C        -1.21509122834621   -0.38628143873406    0.40471813477205
C        -1.89788091667832    0.49470122681731   -0.26223779447409
H         1.86594723080582    0.46840260629922   -0.26720564249107
5
 energy: -9.626345921459 gnorm: 0.084808142583 xtb: 6.2.2 (9d81278992624c895f80dd42a50cac0aa55982e2)
N         1.24454266819255   -0.23441326525132    0.16479565936288
C         0.06791134457439   -0.35894645493814   -0.00343175962027
C        -1.18576974461735   -0.31132637165052    0.36284130271022
C        -2.02294320998566    0.46743088992234   -0.24619667214092
H         1.89625894183608    0.43725520191764   -0.27800953031191
5
 energy: -9.632470613723 gnorm: 0.130351664592 xtb: 6.2.2 (9d81278992624c895f80dd42a50cac0aa55982e2)
N         1.24469199463301   -0.14728347809449    0.16747204497301
C         0.11369335138389   -0.38939962141192    0.09503873525338
C        -1.18133184838587   -0.22025754996615    0.29879085732105
C        -2.08800362399965    0.38007717501277   -0.25966503787175
H         1.91095012636861    0.37686347445979   -0.30163759967568
5
 energy: -9.635336270260 gnorm: 0.167510274832 xtb: 6.2.2 (9d81278992624c895f80dd42a50cac0aa55982e2)
N         1.25515509482327   -0.09987282404602    0.27360371529616
C         0.11698775096860   -0.35621545387177    0.16341597405207
C        -1.11577692602457   -0.18928063173249    0.18067260463317
C        -2.21981920932001    0.34791009253505   -0.23399332842226
H         1.96345328955270    0.29745881711524   -0.38369996555915
5
 energy: -9.636977970630 gnorm: 0.091225000325 xtb: 6.2.2 (9d81278992624c895f80dd42a50cac0aa55982e2)
N         1.31535783506330   -0.11336879017834    0.30998477258070
C         0.13167697992645   -0.39225433447487    0.15458338660469
C        -1.18171103589033   -0.17897109525419    0.17767099515150
C        -2.23230802908645    0.35306130240891   -0.22328762940598
H         1.96698424998702    0.33153291749850   -0.41895252493090
5
 energy: -9.638520688455 gnorm: 0.141582175574 xtb: 6.2.2 (9d81278992624c895f80dd42a50cac0aa55982e2)
N         1.30373597116254   -0.09754824351378    0.16027831194490
C         0.12518751513629   -0.31251939441670    0.10230755764700
C        -1.19342074737508   -0.21353143676330    0.24467155221340
C        -2.23780331204553    0.32692349382832   -0.21661800015558
H         2.00230057312178    0.29667558086545   -0.29064042164972
5
 energy: -9.646515260256 gnorm: 0.033010259445 xtb: 6.2.2 (9d81278992624c895f80dd42a50cac0aa55982e2)
N         1.27166680928970   -0.09125836698801    0.20278343958721
C         0.10877219881880   -0.27166601558110    0.16753084030449
C        -1.17947356458100   -0.23792559550967    0.19554568216611
C        -2.21663272062068    0.32083425229654   -0.21668193707755
H         2.01566727709318    0.28001572578225   -0.34917902498026
5
 energy: -9.645736632990 gnorm: 0.090056257236 xtb: 6.2.2 (9d81278992624c895f80dd42a50cac0aa55982e2)
N         1.30048266169653   -0.06615774855764    0.23993856268772
C         0.14013207094875   -0.27839530558341    0.17562373125467
C        -1.16722266338463   -0.19033750149548    0.14422843318000
C        -2.32764039058648    0.28730061370584   -0.19651377515600
H         2.05424832132582    0.24758994193069   -0.36327795196638
5
 energy: -9.648562746743 gnorm: 0.025558304958 xtb: 6.2.2 (9d81278992624c895f80dd42a50cac0aa55982e2)
N         1.30151526300521   -0.07971425373433    0.21792260573873
C         0.11836105799780   -0.25229391177049    0.16479569021595
C        -1.18644840630848   -0.22431669787490    0.16464406914995
C        -2.28119096143469    0.29885536394192   -0.19224556299031
H         2.04776304674016    0.25746949943780   -0.35511780211432
5
 energy: -9.649032268242 gnorm: 0.015474127416 xtb: 6.2.2 (9d81278992624c895f80dd42a50cac0aa55982e2)
N         1.29916027259065   -0.07851132778020    0.21383161980158
C         0.12278859621927   -0.23990132952359    0.17282937264229
C        -1.18292305542564   -0.22077152602676    0.15456547175146
C        -2.28558387271005    0.28861888551199   -0.18832495787395
H         2.04655805932577    0.25056529781856   -0.35290250632137
5
 energy: -9.649650318615 gnorm: 0.021612399784 xtb: 6.2.2 (9d81278992624c895f80dd42a50cac0aa55982e2)
N         1.30331417027481   -0.07114713350043    0.21112527346951
C         0.12658311072216   -0.21374916958389    0.17652991486859
C        -1.17887431873217   -0.21093050266207    0.13071830467779
C        -2.31230361219356    0.26431472844242   -0.16959598679023
H         2.06128064992876    0.23151207730397   -0.34877850622565
5
 energy: -9.650379128578 gnorm: 0.028410807686 xtb: 6.2.2 (9d81278992624c895f80dd42a50cac0aa55982e2)
N         1.30743234303401   -0.06137365242535    0.20296086324331
C         0.12833121349337   -0.18073081381208    0.16735222386487
C        -1.17597786220555   -0.19396476164862    0.10271972105896
C        -2.34930825361873    0.22774922191915   -0.13730516330673
H         2.08952255929689    0.20832000596689   -0.33572864486040
5
 energy: -9.651392679804 gnorm: 0.031170149569 xtb: 6.2.2 (9d81278992624c895f80dd42a50cac0aa55982e2)
N         1.30784485352578   -0.05388360064824    0.18482283949913
C         0.12645150938598   -0.14504001350845    0.13797563114663
C        -1.17589047732736   -0.17103588407942    0.07821470598013
C        -2.38638650820801    0.18199667531399   -0.09211241579121
H         2.12798062262360    0.18796282292213   -0.30890176083468
5
 energy: -9.652919273869 gnorm: 0.021054574919 xtb: 6.2.2 (9d81278992624c895f80dd42a50cac0aa55982e2)
N         1.30324066910931   -0.05630168373002    0.15176834868017
C         0.12028088944569   -0.10834920833719    0.07617852965984
C        -1.18078563070879   -0.13972426022160    0.06185986149063
C        -2.41694755919224    0.12625103353030   -0.02889226284598
H         2.17421163134602    0.17812411875852   -0.26091547698466
5
 energy: -9.653696021567 gnorm: 0.008678557960 xtb: 6.2.2 (9d81278992624c895f80dd42a50cac0aa55982e2)
N         1.30016718745317   -0.07426390717068    0.13036488430456
C         0.11922596440078   -0.09534875881012    0.02200957082829
C        -1.18287957057632   -0.11310369788256    0.05714747117770
C        -2.42380506677819    0.09485902522209    0.01464715528966
H         2.18729148550056    0.18785733864128   -0.22417008160020
5
 energy: -9.653825493956 gnorm: 0.013499905473 xtb: 6.2.2 (9d81278992624c895f80dd42a50cac0aa55982e2)
N         1.29931234785614   -0.10849268170366    0.10961561760625
C         0.11798651706638   -0.01930628969968    0.01588213253373
C        -1.18133027677278   -0.08804572254858    0.07372070578265
C        -2.43335600223935    0.04880873627320    0.00980617417439
H         2.19738741408961    0.16703595767872   -0.20902563009702
5
 energy: -9.654001831731 gnorm: 0.007614256116 xtb: 6.2.2 (9d81278992624c895f80dd42a50cac0aa55982e2)
N         1.29801219105250   -0.10946662610370    0.11222256182862
C         0.12024616662920   -0.04836883054470    0.02242762989989
C        -1.17824037899319   -0.08508268860286    0.08129322564176
C        -2.42744535013884    0.06025071843674    0.00031905445786
H         2.18742737145034    0.18266742681451   -0.21626347182813
5
 energy: -9.654097367114 gnorm: 0.007909194367 xtb: 6.2.2 (9d81278992624c895f80dd42a50cac0aa55982e2)
N         1.29742960504845   -0.10150380018861    0.12247035260172
C         0.12113878380346   -0.04782589562852    0.02123521620570
C        -1.17767616062340   -0.08429629420971    0.06051093122706
C        -2.42731572617959    0.05796163690890    0.01402771004703
H         2.18642349795108    0.17566435311795   -0.21824521008150
5
 energy: -9.654327829027 gnorm: 0.003109028700 xtb: 6.2.2 (9d81278992624c895f80dd42a50cac0aa55982e2)
N         1.30131058985532   -0.11700125034364    0.12679334619948
C         0.12345619304257   -0.03949328310073    0.02661897012728
C        -1.17608496117861   -0.05913528840163    0.05414981202852
C        -2.43138171782918    0.03920107422132    0.01512203196585
H         2.18269989610990    0.17642874762468   -0.22268516032113
5
 energy: -9.654405491724 gnorm: 0.007821692093 xtb: 6.2.2 (9d81278992624c895f80dd42a50cac0aa55982e2)
N         1.30353018141091   -0.14028012315068    0.12602218438149
C         0.12602824291018   -0.01639889492119    0.03016351719313
C        -1.17351363341088   -0.02838266602741    0.05396108503277
C        -2.43509422412488    0.01122243277829    0.01354603910909
H         2.17904943321466    0.17383925132100   -0.22369382571648
5
 energy: -9.654423958745 gnorm: 0.001957691170 xtb: 6.2.2 (9d81278992624c895f80dd42a50cac0aa55982e2)
N         1.30239701406514   -0.13716337531936    0.12673575102147
C         0.12588285206518   -0.01937537780996    0.02881710304934
C        -1.17394800536579   -0.03133118405495    0.05366424440504
C        -2.43274847813182    0.01405838458453    0.01422947429902
H         2.17841661736728    0.17381155259975   -0.22344757277487
5
 energy: -9.654431598041 gnorm: 0.001399457470 xtb: 6.2.2 (9d81278992624c895f80dd42a50cac0aa55982e2)
N         1.30130680106221   -0.13828221806052    0.12718806894497
C         0.12627807413092   -0.01314711245999    0.02609219036691
C        -1.17381020914438   -0.02735893236857    0.05196617945131
C        -2.43212546566326    0.00856088438954    0.01662770590536
H         2.17835079961450    0.17022737849955   -0.22187514466854
5
 energy: -9.654436063800 gnorm: 0.001170904378 xtb: 6.2.2 (9d81278992624c895f80dd42a50cac0aa55982e2)
N         1.30078194381346   -0.13786089300578    0.12789378809366
C         0.12633990481463   -0.00982118559964    0.02321301023517
C        -1.17386466090752   -0.02452699569466    0.05038390431408
C        -2.43269620083216    0.00487723911038    0.01900963148946
H         2.17943901311157    0.16733183518971   -0.22050133413237
5
 energy: -9.654442632055 gnorm: 0.001033571771 xtb: 6.2.2 (9d81278992624c895f80dd42a50cac0aa55982e2)
N         1.29961628116011   -0.13301604674404    0.13041612640247
C         0.12591154227729   -0.00720704731961    0.01572344110501
C        -1.17436209780715   -0.02149574079889    0.04620771554000
C        -2.43356006311419    0.00041475517559    0.02512330261736
H         2.18239433748393    0.16130407968695   -0.21747158566483
5
 energy: -9.654444293897 gnorm: 0.000383188256 xtb: 6.2.2 (9d81278992624c895f80dd42a50cac0aa55982e2)
N         1.29941941537985   -0.12960113183898    0.13200140833920
C         0.12560495069921   -0.00854490304379    0.01271051326047
C        -1.17456036111167   -0.02169087554738    0.04406054318212
C        -2.43394729243514    0.00044963717722    0.02780258995288
H         2.18348328746773    0.15938727325294   -0.21657605473466
