[Molden Format]
[Title]
[Atoms] AU
O      1     8  0.58344280766235E+00 -0.85623538608691E+00  0.17633520707378E+01
C      2     6 -0.14965341055724E+01 -0.11219324561277E+00  0.80502509808110E+00
H      3     1  0.47434599810190E+01  0.15566246033299E+00 -0.20901390786705E+01
H      4     1 -0.21559241311721E+01 -0.11163747579503E+01 -0.89887307768688E+00
H      5     1 -0.16744426622208E+01  0.19291390395811E+01  0.42063498753523E+00
[GTO]
           1 0
 s           4   1.0000000000000000     
   69.137961906196551      -0.20478756370077797     
   11.906129132707308      -0.24997023136827334     
  0.95670827744340703       0.40025880240639616     
  0.36462520496073686       0.15952206667693555     
 p           4   1.0000000000000000     
   8.2124193257781641        1.1321556799186829     
   2.1293576997098116        1.0476840782254817     
  0.75066448202360914       0.54956508217158984     
  0.29885246543283073        8.2908486592766617E-002

           2 0
 s           4   1.0000000000000000     
   51.049363095579913      -0.16312063210127389     
   8.7911227406887544      -0.19911024581000730     
  0.70640422258929825       0.31882047753655751     
  0.26922813413411617       0.12706504184240380     
 p           4   1.0000000000000000     
   5.8263656140800002       0.73716451545209605     
   1.5106896018720002       0.68216371614850257     
  0.53256483288000001       0.35783053929253711     
  0.21202323690600003        5.3983030275847881E-002

           3 0
 s           3   1.0000000000000000     
   3.3702276975336001       0.27359110588908298     
  0.61389118221497996       0.26460540653860526     
  0.16614291148415999        8.2465947534082318E-002

           4 0
 s           3   1.0000000000000000     
   3.3702276975336001       0.27359110588908298     
  0.61389118221497996       0.26460540653860526     
  0.16614291148415999        8.2465947534082318E-002

           5 0
 s           3   1.0000000000000000     
   3.3702276975336001       0.27359110588908298     
  0.61389118221497996       0.26460540653860526     
  0.16614291148415999        8.2465947534082318E-002

[MO]
Sym=     1a
Ene=  -0.70936043494308398     
Spin= Alpha
Occup=     2.00000000
           1 -0.71250483554615474     
           2  0.16369477892304732     
           3  -6.1600888505384886E-002
           4   8.2447621684802949E-002
           5 -0.30794482621833857     
           6 -0.18863993780007718     
           7   6.5738872790614383E-002
           8  -8.2896041912896012E-002
           9   2.4684504047278998E-004
          10  -3.7675017718484458E-002
          11  -3.7675011459281108E-002
Sym=     2a
Ene=  -0.61526448069598882     
Spin= Alpha
Occup=     2.00000000
           1  0.50068759526939499     
           2  0.32707847530407541     
           3 -0.13893723823877641     
           4  0.20132743506547673     
           5 -0.45087052662902644     
           6   7.0104528788951459E-002
           7  -5.5610415079008081E-002
           8  0.10277192159954865     
           9   1.1396869968507829E-003
          10 -0.23500109011765058     
          11 -0.23500103804235314     
Sym=     3a
Ene=  -0.55275500365712904     
Spin= Alpha
Occup=     2.00000000
           1   8.0245680193449189E-008
           2  -8.2163488726298486E-002
           3 -0.51970920080775829     
           4 -0.22517067866254750     
           5  -3.5509170979269996E-008
           6  -6.9908194444064986E-002
           7 -0.44219003952504593     
           8 -0.19158456996722958     
           9  -4.9596281415920333E-009
          10  0.26814700230675736     
          11 -0.26814696545083316     
Sym=     4a
Ene=  -0.54013762254003617     
Spin= Alpha
Occup=     2.00000000
           1  0.27171426425484047     
           2  0.64151592907973143     
           3  -1.9344454367853463E-002
           4 -0.18943722001163318     
           5  -5.2605590023604542E-004
           6  -8.6994036145033107E-002
           7  0.18231456943699673     
           8 -0.38905054564065839     
           9   1.7809013437279600E-002
          10  0.21510136568273047     
          11  0.21510140727397323     
Sym=     5a
Ene=  -0.51214752546946130     
Spin= Alpha
Occup=     2.00000000
           1 -0.17342806243281897     
           2   1.5756354526908032E-003
           3  0.29772124285795287     
           4 -0.68773577852871937     
           5 -0.17194726063601615     
           6  0.42299462145122346     
           7  -1.2200502062000487E-002
           8 -0.12618893439099704     
           9   1.6935780701334450E-002
          10 -0.16607139823235975     
          11 -0.16607139647066455     
Sym=     6a
Ene=  -0.41820661712308727     
Spin= Alpha
Occup=     1.00000000
           1  -1.9066480037730779E-008
           2  0.11540066310913973     
           3  0.72994364253365152     
           4  0.31625747904731283     
           5  -2.0158756991767734E-008
           6  -4.1428917043515825E-002
           7 -0.26205033275391126     
           8 -0.11353667191449796     
           9   2.7703056601294671E-008
          10  0.38867678269688533     
          11 -0.38867679270060601     
Sym=     7a
Ene=  -0.38653205114473660     
Spin= Alpha
Occup=     1.00000000
           1   9.7901896724188649E-003
           2   8.4719708968573892E-003
           3   3.4450223474697156E-003
           4  -1.1042647080826340E-002
           5  -1.0202439622440489E-002
           6   1.8239773619406697E-002
           7   9.2552320232701171E-003
           8  -2.8017299748358471E-002
           9 -0.99946769738372421     
          10   3.1011211503938754E-003
          11   3.1011018717734384E-003
Sym=     8a
Ene=  -0.30339300068041269     
Spin= Alpha
Occup=     1.00000000
           1  -2.1452920712132791E-002
           2 -0.35898147654069545     
           3 -0.15118123058602953     
           4  0.47992691747862842     
           5 -0.31573739093204267     
           6  0.57366312315829271     
           7  0.16053153529782554     
           8 -0.57984423846756050     
           9   2.4295964450171469E-002
          10  0.13255073850078089     
          11  0.13255074239098022     
Sym=     9a
Ene=   0.13650568991793335     
Spin= Alpha
Occup=     0.00000000
           1   3.0587728251614738E-002
           2  -8.5649996503792111E-002
           3   8.9460554591141897E-002
           4 -0.17522783577466136     
           5  -1.0022405871928026     
           6   8.9870307083800824E-002
           7 -0.26720466857824321     
           8  0.58393349003282025     
           9  -4.9663208492608376E-003
          10  0.75020555599339189     
          11  0.75020542406819768     
Sym=    10a
Ene=   0.18502527440680228     
Spin= Alpha
Occup=     0.00000000
           1  -1.8962680758515777E-008
           2  -3.7025653123641922E-002
           3 -0.23419846463374272     
           4 -0.10146947208239079     
           5   1.0206707058417250E-007
           6  0.15560641580970949     
           7  0.98425684934813795     
           8  0.42644191443607171     
           9   4.8079297687778286E-009
          10  0.80833635631564738     
          11 -0.80833648212119802     
Sym=    11a
Ene=   0.35422350125328589     
Spin= Alpha
Occup=     0.00000000
           1 -0.69082311213565262     
           2  0.75181809086561802     
           3 -0.26117339962455483     
           4  0.32847143252344674     
           5  0.53797903890465193     
           6  0.87395546503662080     
           7 -0.34787147301046845     
           8  0.48400907589128234     
           9  -6.9405168909145347E-003
          10  0.13662384007349104     
          11  0.13662389029194860     
