$hessian                                                                        
        0.4638834483  -0.1630237796   0.2159704927  -0.4369751915   0.1330841922
       -0.1547930140  -0.0000027481  -0.0000201230   0.0000338703  -0.0174762329
        0.0047918586  -0.0366518911  -0.0094292758   0.0251678517  -0.0245594579
       -0.1630237796   0.0820762325  -0.0733964145   0.1431854389  -0.0639120445
        0.0508027355  -0.0000928559  -0.0000171535   0.0000875575  -0.0036749686
        0.0014291125   0.0055099426   0.0236061652  -0.0195761470   0.0169961790
        0.2159704927  -0.0733964145   0.1151297950  -0.1780894448   0.0544834604
       -0.0800776943   0.0002050020   0.0000558011  -0.0002110187  -0.0264006638
        0.0047965205  -0.0238919619  -0.0116853861   0.0140606326  -0.0109491201
       -0.4369751915   0.1431854389  -0.1780894448   0.4954344306  -0.1147898777
        0.2047207865  -0.0000963617  -0.0000132400   0.0000764722  -0.0368019417
       -0.0316849037  -0.0367649483  -0.0215609357   0.0033025826   0.0100571344
        0.1330841922  -0.0639120445   0.0544834604  -0.1147898777   0.3454065660
        0.0070252223   0.0000505875   0.0000101619  -0.0000375690  -0.0281899065
       -0.0668521812  -0.0988905632   0.0098450045  -0.2146525022   0.0374194496
       -0.1547930140   0.0508027355  -0.0800776943   0.2047207865   0.0070252223
        0.2394139274  -0.0000679692  -0.0000112197   0.0000640013  -0.0465816732
       -0.0817361125  -0.1459800574  -0.0032781300   0.0239193744  -0.0134201770
       -0.0000027481  -0.0000928559   0.0002050020  -0.0000963617   0.0000505875
       -0.0000679692   0.0000940312   0.0000343295  -0.0001154691   0.0000059587
        0.0000004440  -0.0000116448  -0.0000008801   0.0000074950  -0.0000099189
       -0.0000201230  -0.0000171535   0.0000558011  -0.0000132400   0.0000101619
       -0.0000112197   0.0000343295   0.0000079746  -0.0000388905   0.0000020379
       -0.0000035950  -0.0000095706  -0.0000030043   0.0000026119   0.0000038797
        0.0000338703   0.0000875575  -0.0002110187   0.0000764722  -0.0000375690
        0.0000640013  -0.0001154691  -0.0000388905   0.0001291062   0.0000038671
       -0.0000023726   0.0000079630   0.0000012595  -0.0000087254   0.0000099481
       -0.0174762329  -0.0036749686  -0.0264006638  -0.0368019417  -0.0281899065
       -0.0465816732   0.0000059587   0.0000020379   0.0000038671   0.0503574708
        0.0337962973   0.0751884681   0.0039147451  -0.0019334601  -0.0022099981
        0.0047918586   0.0014291125   0.0047965205  -0.0316849037  -0.0668521812
       -0.0817361125   0.0000004440  -0.0000035950  -0.0000023726   0.0337962973
        0.0891118533   0.0968138362  -0.0069036962  -0.0236851897  -0.0198718717
       -0.0366518911   0.0055099426  -0.0238919619  -0.0367649483  -0.0988905632
       -0.1459800574  -0.0000116448  -0.0000095706   0.0000079630   0.0751884681
        0.0968138362   0.1716835467  -0.0017599839  -0.0034236451  -0.0018194904
       -0.0094292758   0.0236061652  -0.0116853861  -0.0215609357   0.0098450045
       -0.0032781300  -0.0000008801  -0.0000030043   0.0000012595   0.0039147451
       -0.0069036962  -0.0017599839   0.0270763465  -0.0265444691   0.0167222405
        0.0251678517  -0.0195761470   0.0140606326   0.0033025826  -0.2146525022
        0.0239193744   0.0000074950   0.0000026119  -0.0000087254  -0.0019334601
       -0.0236851897  -0.0034236451  -0.0265444691   0.2579112270  -0.0345476366
       -0.0245594579   0.0169961790  -0.0109491201   0.0100571344   0.0374194496
       -0.0134201770  -0.0000099189   0.0000038797   0.0000099481  -0.0022099981
       -0.0198718717  -0.0018194904   0.0167222405  -0.0345476366   0.0261788393
