5
 energy: -7.131480263788 gnorm: 0.532138115905 xtb: 6.2.2 (9d81278992624c895f80dd42a50cac0aa55982e2)
O         0.84306800000000   -0.33393300000000    0.46312000000000
C        -0.51700400000000   -0.05050700000000    0.30521600000000
H         1.28173500000000   -0.03937000000000   -0.37680800000000
H        -0.93496000000000   -0.61713400000000   -0.55495800000000
H        -0.67283800000000    1.04094300000000    0.16343000000000
5
 energy: -7.290201433993 gnorm: 0.216205599490 xtb: 6.2.2 (9d81278992624c895f80dd42a50cac0aa55982e2)
O         0.80546987926697   -0.34888789681556    0.51135468135432
C        -0.69744454537391   -0.06011150213191    0.39322404182432
H         1.43933734944141   -0.01268481832161   -0.49590524151251
H        -0.90927149823730   -0.64685297211467   -0.57594651352185
H        -0.63809018509718    1.06853618938375    0.16727303185572
5
 energy: -7.351339998259 gnorm: 0.214827841717 xtb: 6.2.2 (9d81278992624c895f80dd42a50cac0aa55982e2)
O         0.73477585516150   -0.34791227072499    0.53489774164653
C        -0.73108605957349   -0.04120013727247    0.36184988766722
H         1.61907241698432   -0.01497661107822   -0.55619692079328
H        -0.94639223928669   -0.65198779430180   -0.54029813496425
H        -0.67636897328564    1.05607581337748    0.19974742644379
5
 energy: -7.416117445294 gnorm: 0.101189758210 xtb: 6.2.2 (9d81278992624c895f80dd42a50cac0aa55982e2)
O         0.54889734282383   -0.34979501850921    0.60706650208872
C        -0.72464624723550   -0.02824596844454    0.32959921187992
H         1.84617220691964    0.00520416941496   -0.68563866241887
H        -0.96733928080633   -0.64937330485185   -0.48763311224929
H        -0.70308302170164    1.02220912239064    0.23660606069951
5
 energy: -7.427961661807 gnorm: 0.041846303027 xtb: 6.2.2 (9d81278992624c895f80dd42a50cac0aa55982e2)
O         0.51799586872664   -0.35938126188034    0.64046815921127
C        -0.68994351803124   -0.03338325518255    0.32879431185394
H         1.94753206330287    0.00499018387262   -0.72212937625200
H        -1.02097661994304   -0.64858942289779   -0.48858265270509
H        -0.75460679405524    1.03636275608806    0.24144955789188
5
 energy: -7.433752920254 gnorm: 0.019682601214 xtb: 6.2.2 (9d81278992624c895f80dd42a50cac0aa55982e2)
O         0.53047179204875   -0.37918238228854    0.68161885906640
C        -0.64194313232157   -0.04365676300638    0.33499184993386
H         2.06996722510223   -0.00201534315036   -0.75063414174607
H        -1.10977196610710   -0.61321951391690   -0.49071273484579
H        -0.84872291872231    1.03807300236219    0.22473616759159
5
 energy: -7.434185401261 gnorm: 0.018574254238 xtb: 6.2.2 (9d81278992624c895f80dd42a50cac0aa55982e2)
O         0.53137812881730   -0.38377258651202    0.69188261079854
C        -0.63932546629189   -0.04815811477683    0.34442603334639
H         2.08976274338937   -0.00072288923601   -0.76084013936700
H        -1.11882462393378   -0.59282855846680   -0.48831353150160
H        -0.86298978198100    1.02548114899166    0.21284502672368
5
 energy: -7.434546758748 gnorm: 0.012504532485 xtb: 6.2.2 (9d81278992624c895f80dd42a50cac0aa55982e2)
O         0.52877688335744   -0.38833780058037    0.70336838277876
C        -0.64365075380937   -0.05052391655460    0.35146456826268
H         2.10995429381234    0.00199989192934   -0.77449179747029
H        -1.12363903914420   -0.57922395805799   -0.48576705105844
H        -0.87144038421620    1.01608478326362    0.20542589748728
5
 energy: -7.435044908411 gnorm: 0.010220474932 xtb: 6.2.2 (9d81278992624c895f80dd42a50cac0aa55982e2)
O         0.51534268062669   -0.39468892899937    0.72292865390946
C        -0.65572380825330   -0.05265218959523    0.36078186930213
H         2.14324501973359    0.00833206441784   -0.80125354354475
H        -1.12621822414458   -0.56984763376212   -0.48322760645323
H        -0.87664466796241    1.00885568793887    0.20077062678638
5
 energy: -7.435777014055 gnorm: 0.010284821102 xtb: 6.2.2 (9d81278992624c895f80dd42a50cac0aa55982e2)
O         0.48621168154549   -0.40456570512781    0.75635346506575
C        -0.67986021570547   -0.05425437825630    0.37328661910056
H         2.20009464920853    0.02016353726313   -0.84930373299976
H        -1.12792264862673   -0.56947501703979   -0.48192935669868
H        -0.87852246642183    1.00813056316077    0.20159300553214
5
 energy: -7.436441355134 gnorm: 0.006465057742 xtb: 6.2.2 (9d81278992624c895f80dd42a50cac0aa55982e2)
O         0.44353115762338   -0.41553585175576    0.79724567662875
C        -0.71141638181609   -0.05615593896692    0.38918968822901
H         2.26771296144316    0.03608186911509   -0.91071571290850
H        -1.12586029061778   -0.57888442428881   -0.48303764321126
H        -0.87396644663267    1.01449334589639    0.20731799126201
5
 energy: -7.436703695151 gnorm: 0.002101095940 xtb: 6.2.2 (9d81278992624c895f80dd42a50cac0aa55982e2)
O         0.40600899335433   -0.42501078084929    0.83280489478420
C        -0.73703369072824   -0.05782429183842    0.40238755018071
H         2.32747022678719    0.04963725450901   -0.96380572892313
H        -1.12543105955836   -0.58807168769710   -0.48432906845129
H        -0.87101346985493    1.02126850587581    0.21294235240951
5
 energy: -7.436765778165 gnorm: 0.002374124129 xtb: 6.2.2 (9d81278992624c895f80dd42a50cac0aa55982e2)
O         0.38301176181790   -0.43133637097052    0.85579566748946
C        -0.75122045753124   -0.05865028481673    0.40947043861508
H         2.36802989880034    0.05766314270901   -0.99712887905133
H        -1.12753223989780   -0.59112293714009   -0.48383687705291
H        -0.87228796318921    1.02344545021833    0.21569964999971
5
 energy: -7.436805276348 gnorm: 0.002506923073 xtb: 6.2.2 (9d81278992624c895f80dd42a50cac0aa55982e2)
O         0.36074026572930   -0.43791020215302    0.87909460610186
C        -0.76399536045595   -0.05902901085961    0.41500583946114
H         2.41074793930018    0.06519591942786   -1.03010146250237
H        -1.13147038965458   -0.59205983231972   -0.48204794127902
H        -0.87602145491895    1.02380212590449    0.21804895821839
5
 energy: -7.436835216022 gnorm: 0.001422367592 xtb: 6.2.2 (9d81278992624c895f80dd42a50cac0aa55982e2)
O         0.33562996613410   -0.44540589590721    0.90555703321532
C        -0.77766772364367   -0.05918011816770    0.42034331184404
H         2.45998446238204    0.07349588571366   -1.06722317121062
H        -1.13656262907857   -0.59153390532398   -0.47901761728425
H        -0.88138307579390    1.02262303368523    0.22034044343551
5
 energy: -7.436844754888 gnorm: 0.000524050984 xtb: 6.2.2 (9d81278992624c895f80dd42a50cac0aa55982e2)
O         0.30970028025391   -0.45299107165780    0.93252496305199
C        -0.79145009903265   -0.05925194305032    0.42553789853239
H         2.50983723756552    0.08200965047954   -1.10506318065591
H        -1.14139490600666   -0.59045575846185   -0.47552608155832
H        -0.88669151278012    1.02068812269043    0.22252640062986
5
 energy: -7.436845092732 gnorm: 0.000209866321 xtb: 6.2.2 (9d81278992624c895f80dd42a50cac0aa55982e2)
O         0.30874378152339   -0.45310030754799    0.93312610412534
C        -0.79193299363044   -0.05937500435541    0.42599810764046
H         2.51013458517845    0.08238810767185   -1.10604516486121
H        -1.14086127088833   -0.59076527890099   -0.47566820577875
H        -0.88608310218307    1.02085148313254    0.22258915887416
