 Entering Gaussian System
 *********************************************
 Gaussian 98:
 frequency output generated by the xtb code
 *********************************************
                         Standard orientation:
 --------------------------------------------------------------------
  Center     Atomic     Atomic              Coordinates (Angstroms)
  Number     Number      Type              X           Y           Z
 --------------------------------------------------------------------
    1          8             0        0.308745   -0.453100    0.933126
    2          6             0       -0.791932   -0.059370    0.426001
    3          1             0        2.510131    0.082373   -1.106054
    4          1             0       -1.140866   -0.590760   -0.475663
    5          1             0       -0.886077    1.020857    0.222590
 --------------------------------------------------------------------
     1 basis functions        1 primitive gaussians
     1 alpha electrons        1 beta electrons

 Harmonic frequencies (cm**-1), IR intensities (KM/Mole),
 Raman scattering activities (A**4/amu), Raman depolarization ratios,
 reduced masses (AMU), force constants (mDyne/A) and normal coordinates:
                      1                      2                      3
                        a                      a                      a 
 Frequencies --   -22.9959               -15.5013                83.2145
 Red. masses --     1.9843                 4.9654                 2.2942
 Frc consts  --     0.0000                 0.0000                 0.0000
 IR Inten    --     0.0836                 0.1229                 0.1045
 Raman Activ --     0.0000                 0.0000                 0.0000
 Depolar     --     0.0000                 0.0000                 0.0000
 Atom AN      X      Y      Z        X      Y      Z        X      Y      Z
   1   8     0.03   0.17   0.08     0.12   0.14  -0.36     0.17   0.07  -0.23
   2   6    -0.03  -0.18  -0.08    -0.24  -0.08   0.26     0.01  -0.02   0.04
   3   1    -0.07  -0.37  -0.16     0.68  -0.25   0.31    -0.61  -0.21   0.70
   4   1     0.37   0.31  -0.38    -0.16  -0.02   0.11    -0.04  -0.01   0.03
   5   1    -0.32   0.02   0.52    -0.17  -0.02   0.12    -0.04  -0.01   0.03
                      4                      5                      6
                        a                      a                      a 
 Frequencies --   743.5331               813.5561              1197.5876
 Red. masses --     4.1302                 3.6747                 1.7598
 Frc consts  --     0.0000                 0.0000                 0.0000
 IR Inten    --     0.3070                 0.0902                 0.2399
 Raman Activ --     0.0000                 0.0000                 0.0000
 Depolar     --     0.0000                 0.0000                 0.0000
 Atom AN      X      Y      Z        X      Y      Z        X      Y      Z
   1   8    -0.04   0.08  -0.17     0.03   0.22   0.10     0.03  -0.04   0.08
   2   6    -0.23  -0.14   0.40    -0.06  -0.37  -0.16     0.19  -0.08   0.12
   3   1    -0.00  -0.00   0.00    -0.00  -0.00  -0.00     0.00  -0.00  -0.00
   4   1     0.49   0.18  -0.30    -0.52   0.34  -0.07    -0.33   0.56  -0.22
   5   1     0.46  -0.03  -0.39     0.58   0.04   0.23    -0.44  -0.12  -0.51
                      7                      8                      9
                        a                      a                      a 
 Frequencies --  1507.4203              2699.2811              2752.4594
 Red. masses --    13.4813                 1.9464                 1.3723
 Frc consts  --     0.0000                 0.0000                 0.0000
 IR Inten    --     0.3090                 0.1273                 0.0540
 Raman Activ --     0.0000                 0.0000                 0.0000
 Depolar     --     0.0000                 0.0000                 0.0000
 Atom AN      X      Y      Z        X      Y      Z        X      Y      Z
   1   8    -0.58   0.20  -0.26    -0.00  -0.01  -0.01     0.02  -0.01   0.02
   2   6     0.65  -0.21   0.24    -0.04  -0.26  -0.11     0.06  -0.07   0.15
   3   1    -0.00  -0.00   0.00     0.00  -0.00  -0.00     0.00   0.00  -0.00
   4   1     0.02  -0.06   0.10     0.24   0.31   0.55    -0.24  -0.38  -0.53
   5   1     0.03  -0.04   0.11    -0.09   0.66  -0.14    -0.07   0.69  -0.07
