5
 energy: -7.436845092756 gnorm: 0.000209857578 xtb: 6.2.2 (9d81278992624c895f80dd42a50cac0aa55982e2)
O         0.30874466632547   -0.45310029552451    0.93312581720835
C        -0.79193181748338   -0.05937011430387    0.42600097563379
H         2.51013115567530    0.08237303424387   -1.10605407066979
H        -1.14086602450152   -0.59076013554529   -0.47566319233811
H        -0.88607698002111    1.02085651112457    0.22259047016403
