 Entering Gaussian System
 *********************************************
 Gaussian 98:
 frequency output generated by the xtb code
 *********************************************
                         Standard orientation:
 --------------------------------------------------------------------
  Center     Atomic     Atomic              Coordinates (Angstroms)
  Number     Number      Type              X           Y           Z
 --------------------------------------------------------------------
    1          6             0       -0.640303   -0.380684   -0.038664
    2          6             0       -0.587033    1.018625   -0.069294
    3          6             0        0.648086    0.367159    0.039807
    4          8             0        0.579250   -1.005101    0.068151
 --------------------------------------------------------------------
     1 basis functions        1 primitive gaussians
     1 alpha electrons        1 beta electrons

 Harmonic frequencies (cm**-1), IR intensities (KM/Mole),
 Raman scattering activities (A**4/amu), Raman depolarization ratios,
 reduced masses (AMU), force constants (mDyne/A) and normal coordinates:
                      1                      2                      3
                        a                      a                      a 
 Frequencies --  -396.8586               394.5298               470.4113
 Red. masses --    13.1042                12.2449                12.8319
 Frc consts  --     0.0000                 0.0000                 0.0000
 IR Inten    --     1.0169                 1.4406                 0.7481
 Raman Activ --     0.0000                 0.0000                 0.0000
 Depolar     --     0.0000                 0.0000                 0.0000
 Atom AN      X      Y      Z        X      Y      Z        X      Y      Z
   1   6     0.49  -0.34   0.04    -0.25  -0.46  -0.01     0.04  -0.01  -0.52
   2   6     0.08   0.05   0.01     0.54   0.31   0.03    -0.04   0.01   0.51
   3   6    -0.05   0.60  -0.02    -0.53   0.01  -0.04     0.04  -0.01  -0.52
   4   8    -0.45  -0.26  -0.03     0.21   0.12   0.01    -0.03   0.01   0.45
                      4                      5                      6
                        a                      a                      a 
 Frequencies --   934.9579              1365.8265              1514.4990
 Red. masses --    13.4966                13.2811                12.0167
 Frc consts  --     0.0000                 0.0000                 0.0000
 IR Inten    --     0.6499                 1.1640                 0.4626
 Raman Activ --     0.0000                 0.0000                 0.0000
 Depolar     --     0.0000                 0.0000                 0.0000
 Atom AN      X      Y      Z        X      Y      Z        X      Y      Z
   1   6     0.30   0.25   0.02     0.57  -0.10   0.05    -0.17  -0.50  -0.00
   2   6    -0.28   0.49  -0.03    -0.05   0.09  -0.01    -0.33   0.57  -0.04
   3   6    -0.36  -0.13  -0.02    -0.19  -0.55  -0.00     0.52  -0.10   0.04
   4   8     0.30  -0.53   0.04    -0.28   0.49  -0.03    -0.02   0.03  -0.00
