[Molden Format]
[Title]
[Atoms] AU
C      1     6 -0.29726433739040E+01 -0.10281944679782E+01  0.11543258251753E-01
N      2     7 -0.44587890283418E+00 -0.15158021048373E+00 -0.31928544450138E+00
C      3     6  0.19054242624952E+01 -0.42464559942648E+00 -0.76031172481612E-01
C      4     6 -0.26849687470260E+01  0.14132933604978E+01  0.28533167652165E+00
C      5     6  0.41980667612789E+01  0.19112880711645E+00  0.98441682206303E-01
[GTO]
           1 0
 s           4   1.0000000000000000     
   51.049363095579913      -0.16312063210127389     
   8.7911227406887544      -0.19911024581000730     
  0.70640422258929825       0.31882047753655751     
  0.26922813413411617       0.12706504184240380     
 p           4   1.0000000000000000     
   5.8263656140800002       0.73716451545209605     
   1.5106896018720002       0.68216371614850257     
  0.53256483288000001       0.35783053929253711     
  0.21202323690600003        5.3983030275847881E-002

           2 0
 s           4   1.0000000000000000     
   63.594024466941008      -0.19234388414721629     
   10.951417231523665      -0.23478107924953728     
  0.87999310257376984       0.37593753901700888     
  0.33538715296521110       0.14982889271862770     
 p           4   1.0000000000000000     
   7.2965040481495080       0.97658666315667420     
   1.8918745450712575       0.90372226730345739     
  0.66694432110824120       0.47404958461536373     
  0.26552202674130870        7.1516067715011844E-002

           3 0
 s           4   1.0000000000000000     
   51.049363095579913      -0.16312063210127389     
   8.7911227406887544      -0.19911024581000730     
  0.70640422258929825       0.31882047753655751     
  0.26922813413411617       0.12706504184240380     
 p           4   1.0000000000000000     
   5.8263656140800002       0.73716451545209605     
   1.5106896018720002       0.68216371614850257     
  0.53256483288000001       0.35783053929253711     
  0.21202323690600003        5.3983030275847881E-002

           4 0
 s           4   1.0000000000000000     
   51.049363095579913      -0.16312063210127389     
   8.7911227406887544      -0.19911024581000730     
  0.70640422258929825       0.31882047753655751     
  0.26922813413411617       0.12706504184240380     
 p           4   1.0000000000000000     
   5.8263656140800002       0.73716451545209605     
   1.5106896018720002       0.68216371614850257     
  0.53256483288000001       0.35783053929253711     
  0.21202323690600003        5.3983030275847881E-002

           5 0
 s           4   1.0000000000000000     
   51.049363095579913      -0.16312063210127389     
   8.7911227406887544      -0.19911024581000730     
  0.70640422258929825       0.31882047753655751     
  0.26922813413411617       0.12706504184240380     
 p           4   1.0000000000000000     
   5.8263656140800002       0.73716451545209605     
   1.5106896018720002       0.68216371614850257     
  0.53256483288000001       0.35783053929253711     
  0.21202323690600003        5.3983030275847881E-002

[MO]
Sym=     1a
Ene=  -0.74190465494550939     
Spin= Alpha
Occup=     2.00000000
           1 -0.34886053664020089     
           2 -0.13061422909238832     
           3 -0.12941382302730634     
           4   2.8100384938161885E-004
           5 -0.40659106258304051     
           6  0.21875567012574385     
           7  -2.4387697068314867E-002
           8  -6.3563609368442783E-002
           9  -3.2375772286694068E-002
          10   5.8999412794290003E-002
          11  -6.8715029777352945E-003
          12  -6.7546929016402916E-003
          13 -0.33524975325634554     
          14  -8.4084618293308516E-002
          15  0.15440733373458423     
          16   3.0490984016609914E-002
          17   9.7915118890720982E-003
          18   5.8017361009130930E-004
          19  -1.0383336130245166E-003
          20  -8.8913928704207593E-004
Sym=     2a
Ene=  -0.69633839462313618     
Spin= Alpha
Occup=     2.00000000
           1 -0.12346620712678309     
           2   3.6374565356787382E-002
           3  -5.3419877992541755E-002
           4   1.3663468179291548E-003
           5  0.38988468447948094     
           6  0.34485007552058594     
           7  -3.1873768318287650E-002
           8   2.1952533860484739E-002
           9  0.48025810151873205     
          10 -0.13775670995123560     
          11   4.2501726681226704E-002
          12  -1.6525849817582556E-002
          13 -0.11580974614938884     
          14   4.9241600467153243E-002
          15   4.4175666839617295E-002
          16   1.0878082438987417E-002
          17  0.16593750467629834     
          18 -0.10155236889057964     
          19  -1.4548911121524099E-002
          20  -8.0524161784183736E-003
Sym=     3a
Ene=  -0.64705744136005272     
Spin= Alpha
Occup=     2.00000000
           1   8.8997214178366549E-002
           2  -8.0802803806986803E-002
           3   8.8097674165920140E-002
           4   2.3011351678080310E-002
           5 -0.24672743111101667     
           6  -9.7643807385378839E-002
           7  0.11323126473760040     
           8   2.7028545679278208E-002
           9  0.24059122548241985     
          10  0.36968841814457737     
          11   7.5692254230168343E-002
          12   4.2854496425181111E-002
          13  0.17257554281919860     
          14  -4.6429385332497547E-002
          15  -3.5249034041075419E-002
          16   1.7647944343032640E-003
          17  0.51930051328646243     
          18 -0.13766702348562551     
          19  -3.5986945962017791E-002
          20  -6.6359671156905973E-003
Sym=     4a
Ene=  -0.61040816260740849     
Spin= Alpha
Occup=     2.00000000
           1 -0.34708917537781536     
           2 -0.12492608206830787     
           3  0.20027291063442740     
           4   4.4279769835679494E-002
           5   1.7920274972549208E-002
           6  0.11003358476597234     
           7  0.57962750978639621     
           8   5.1477720888057070E-002
           9  -7.5818144407529417E-002
          10  -7.8728477874775771E-002
          11  0.20496274828318925     
          12   8.6729607007003124E-003
          13  0.33036957402391431     
          14  0.15832586481777086     
          15  0.14290144321665663     
          16  -8.9200336861403190E-003
          17 -0.10682269141683153     
          18   1.0519817220208057E-002
          19   5.9015647473189221E-002
          20   4.0290832203499737E-003
Sym=     5a
Ene=  -0.58606292120370618     
Spin= Alpha
Occup=     2.00000000
           1   6.1177865463543563E-002
           2  -4.0166701010001332E-002
           3  -2.1776356076458349E-003
           4  0.32460388457301931     
           5 -0.15426449954487173     
           6  0.10697550434511603     
           7  -8.7472693258083711E-002
           8  0.62524919266619339     
           9   3.8097699319078498E-002
          10  -8.2517080117844810E-002
          11  -4.3692165959235356E-002
          12  0.27382298476810379     
          13   7.0381054392653700E-002
          14  -4.5643185797366675E-002
          15  -5.2474467111236510E-002
          16  0.29593823583741669     
          17  -7.9569718026349642E-002
          18  -5.8649339876571151E-003
          19  -7.7622373050578669E-003
          20   8.0012531079266161E-002
Sym=     6a
Ene=  -0.56906370267213280     
Spin= Alpha
Occup=     2.00000000
           1  0.28179748930271947     
           2 -0.38179108497415698     
           3  0.16763313698467247     
           4   6.2154371891185852E-003
           5 -0.15487661857477952     
           6  0.30852474424562132     
           7  -6.3604745519720965E-002
           8 -0.19176253762886755     
           9  0.13009880592578962     
          10 -0.14941430415655793     
          11  -4.2727847308259605E-002
          12 -0.13689862112256473     
          13  0.28739483084676759     
          14 -0.40936179208807671     
          15  -7.2499285440327965E-002
          16  -1.6246502963545954E-002
          17 -0.17862174235326914     
          18  -2.1140968028355529E-002
          19  -6.3017637287607446E-003
          20  -4.3229780559913770E-002
Sym=     7a
Ene=  -0.49833722951467363     
Spin= Alpha
Occup=     2.00000000
           1 -0.41889893146156526     
           2  0.20823177631018319     
           3  0.24681681712543008     
           4  -1.7396131551388975E-002
           5  -7.2893003717076519E-003
           6  -6.1182398268062772E-002
           7 -0.25845554855914393     
           8  -2.5268568853493219E-002
           9  0.10512158240979184     
          10   5.7878276176645226E-002
          11 -0.45109201905597468     
          12  -2.2727326604254579E-002
          13  0.41831820540053644     
          14  -6.1747335965751486E-002
          15  0.29377301005759660     
          16   2.9712081233775382E-002
          17  -4.2049158235464026E-002
          18   2.7404297644673128E-002
          19 -0.27196568142771504     
          20  -1.3684654314369117E-002
Sym=     8a
Ene=  -0.47418549438576130     
Spin= Alpha
Occup=     2.00000000
           1  -2.3951828990614665E-002
           2  0.10236615441304024     
           3  -3.8511692782125337E-002
           4  0.41113688988292296     
           5   3.0627221370106643E-002
           6  -5.1408912123491564E-003
           7  -1.6826041730693894E-002
           8  -9.3453840465829177E-002
           9  -7.2945972238623771E-002
          10   5.1586927027294963E-002
          11   4.6998817949508186E-002
          12 -0.52937070852096335     
          13   2.5864489978529415E-002
          14   6.9741838769474471E-002
          15  -3.8379321316044192E-002
          16  0.41043901980071290     
          17   9.8262892963663209E-002
          18   9.3229560278081713E-002
          19   4.9650196656449708E-002
          20 -0.38820654081171729     
Sym=     9a
Ene=  -0.44501053267248136     
Spin= Alpha
Occup=     1.99998754
           1   9.2587422549921777E-002
           2  -6.6263759234328506E-002
           3  -5.2060983571150833E-002
           4   4.0336258809241576E-002
           5 -0.11962542043768029     
           6  -8.0703362673835446E-002
           7  0.25006259694160221     
           8   2.4906379284345512E-002
           9  0.22357986634376883     
          10  0.17068966280313297     
          11 -0.17507444978353087     
          12  -8.6873530385154135E-002
          13 -0.18209216578679302     
          14  0.22397177392082818     
          15 -0.17857014014118053     
          16  -2.7922084567569977E-002
          17 -0.55950341656297775     
          18 -0.44937203690241728     
          19 -0.34793552500261044     
          20 -0.13870352100596695     
Sym=    10a
Ene=  -0.42355174674896418     
Spin= Alpha
Occup=     1.00001244
           1  0.19607802863795054     
           2  0.13528139703051639     
           3 -0.37559284224096473     
           4  -7.1978500315670810E-002
           5  -7.7496946579545575E-002
           6  -8.2229085753577486E-002
           7 -0.18966846283143574     
           8  -1.4692708028073468E-002
           9   4.3327467764011175E-002
          10   5.1545902591579554E-002
          11  0.25843339974661073     
          12   1.2303528309308982E-003
          13  0.38656379932464979     
          14  -4.1388130234790321E-002
          15  0.51442010493471280     
          16   8.1400731547602953E-002
          17 -0.24459502743062836     
          18 -0.36431017369976426     
          19  0.25529275633373444     
          20  -3.1361199355586747E-002
Sym=    11a
Ene=  -0.41732751062309770     
Spin= Alpha
Occup=     1.00000002
           1  0.38377886276349371     
           2 -0.26933962015568247     
           3 -0.47293001907277910     
           4  -1.5028369523764417E-002
           5   4.9877736885658476E-002
           6   8.0989851934258908E-002
           7  0.25838140652411590     
           8   2.2864012012645953E-002
           9  -1.7528999507962200E-002
          10  -4.3282768170315136E-002
          11 -0.27036473985540027     
          12  -1.3954248289906063E-002
          13  0.16384152231657595     
          14  0.23069872611125528     
          15  0.28822523245503523     
          16  -6.4979224585673609E-003
          17  0.19611739982184179     
          18  0.33443341299632556     
          19 -0.32079291613269434     
          20   8.6241833096896616E-003
Sym=    12a
Ene=  -0.37972134273800739     
Spin= Alpha
Occup=     1.00000000
           1  -2.6641068515236600E-003
           2  -1.9555807713282251E-002
           3   4.2914532296974589E-002
           4 -0.33485482919079523     
           5 -0.12182825128983960     
           6   2.9286708154942973E-002
           7  -6.7968399655773643E-002
           8  0.62105385953452252     
           9   2.4547863364398799E-002
          10  -4.0627606429703637E-002
          11   3.0211834835218135E-003
          12 -0.15505427154303753     
          13  -5.6497757967749638E-003
          14  -1.7541478267770937E-002
          15   4.1002592064690251E-002
          16 -0.39560680812679166     
          17   3.7985610385515595E-002
          18   8.8889585527614695E-002
          19   8.3810808867388398E-002
          20 -0.59221095343754127     
Sym=    13a
Ene=  -0.27820805179845892     
Spin= Alpha
Occup=     0.00000000
           1   7.0798656062564841E-004
           2  0.12923522660303507     
           3 -0.10350134582303498     
           4  0.78874507393606752     
           5   2.8507784219785372E-003
           6  -1.2350983261105028E-003
           7   4.4514708150406937E-003
           8  -2.7529146113821488E-002
           9  -1.1227366650992444E-003
          10   7.2372806761860876E-003
          11  -1.3781394462059858E-002
          12  -2.9945376618791663E-002
          13   7.0319590914121608E-004
          14 -0.12481575271601021     
          15  0.10166198903677916     
          16 -0.78007987807029455     
          17  -9.0316154728893117E-005
          18  -1.3447373098060969E-002
          19   2.3960768384418633E-002
          20   5.4210373558569808E-002
Sym=    14a
Ene=  -0.24468980073517352     
Spin= Alpha
Occup=     0.00000000
           1  -2.3677146152098493E-002
           2  0.22723797555175154     
           3  -5.7494115729084500E-002
           4  -3.0913733048672523E-002
           5  0.20158209056322915     
           6   1.2012756942526041E-002
           7   2.6488463715011623E-002
           8   4.1900522424178833E-002
           9 -0.20549532928385797     
          10   1.9304199727390073E-002
          11  0.61785256791979437     
          12  0.10131328262644680     
          13  -4.8744414244570780E-002
          14 -0.45944864359318560     
          15   6.2169984983873348E-002
          16   4.4922234120885793E-002
          17  -2.7339235099733055E-002
          18   8.0905214411034140E-002
          19 -0.74703519573963761     
          20 -0.12055311763803576     
Sym=    15a
Ene=  -0.18280078567201150     
Spin= Alpha
Occup=     0.00000000
           1   4.5200015557718763E-002
           2  0.12014761307888543     
           3   2.4828084390511526E-002
           4 -0.15833374748319409     
           5 -0.21034805199019072     
           6   9.1398539070793178E-002
           7  -6.7469954013043842E-002
           8  0.41381317453875283     
           9   1.4287616373553568E-002
          10   1.2193912025420873E-002
          11  0.15290050315203163     
          12 -0.80568240748320208     
          13   4.1320687567367009E-002
          14   7.2048930747062423E-002
          15  -2.5749128828993054E-002
          16  -9.4735002095385379E-002
          17  -6.5213109345963896E-003
          18   4.2173232069386496E-003
          19 -0.13117923107964150     
          20  0.70867404955624691     
Sym=    16a
Ene=   -6.6847366617981005E-002
Spin= Alpha
Occup=     0.00000000
           1   3.6245429227753853E-002
           2  0.58372305295090299     
           3 -0.28490489497241561     
           4 -0.13932715824028424     
           5  -2.2780851678363745E-002
           6  -1.0991624289709444E-002
           7  0.72820958458584506     
           8   8.2499657993816353E-002
           9  0.17471426068060675     
          10   2.1034549423376177E-002
          11 -0.40800222820692567     
          12  -6.1958996066806146E-002
          13  -6.1283040677983965E-002
          14 -0.69379143884911643     
          15  -9.7616582325252374E-002
          16  0.11520662971177335     
          17  -3.3747822424474237E-002
          18   5.3758789254308041E-002
          19  0.25810285423967033     
          20   4.2986225862699137E-002
Sym=    17a
Ene=   -6.5561242878947407E-002
Spin= Alpha
Occup=     0.00000000
           1  0.23416422778217741     
           2  0.59096410881133632     
           3   3.2295914606123355E-002
           4  -3.9393454372960886E-002
           5 -0.90983284690102639     
           6  0.31776053335378007     
           7  -2.5378961308341486E-002
           8 -0.29075772212378220     
           9  0.37433104977279025     
          10 -0.28237865993132472     
          11  0.20703863541386267     
          12  0.18604554403600751     
          13  0.22361644164581518     
          14  0.36592888892390729     
          15 -0.20029041226774305     
          16  -5.3830925949100730E-002
          17  -5.9836753518949605E-002
          18  0.27423690145199736     
          19 -0.10023451916764585     
          20 -0.10260050427270773     
Sym=    18a
Ene=   0.38576196051687389     
Spin= Alpha
Occup=     0.00000000
           1   7.4503204115243101E-003
           2  0.27356494497947825     
           3 -0.18339362068138745     
           4  -9.7434561837535030E-002
           5  0.12167679246146738     
           6  0.91145751056911151     
           7  -3.3996939601562914E-002
           8  -1.0841533827363149E-002
           9  -1.0404370311073146     
          10  0.10890603729444945     
          11 -0.27834904136568162     
          12   6.1025073675734919E-002
          13  0.35541119157863410     
          14  0.13984242477524259     
          15 -0.35674670880388171     
          16  -8.8569589413116490E-002
          17  0.38479080294465051     
          18 -0.59522584325501571     
          19  -5.7704413156136287E-002
          20  -6.3543280247894476E-002
Sym=    19a
Ene=   0.54123812387389059     
Spin= Alpha
Occup=     0.00000000
           1 -0.87691652791074803     
           2 -0.28682289469887395     
           3 -0.91339818942855944     
           4  -6.5656948672102075E-002
           5   8.2026427616166218E-003
           6 -0.27843190534446338     
           7 -0.21610157894199603     
           8  -1.2442149742412902E-002
           9  0.24633561513520133     
          10  -1.5479192948896683E-002
          11  0.13764361447859008     
          12  -9.2814210387288636E-003
          13  0.76447549473324938     
          14  -7.1069592195911677E-002
          15 -0.88953914070901152     
          16 -0.10272875002264507     
          17  -9.9981659873430426E-002
          18  0.14454679181449478     
          19  -4.1828975828886329E-003
          20   1.3488209431817956E-002
Sym=    20a
Ene=    1.0296055007457234     
Spin= Alpha
Occup=     0.00000000
           1  0.10969552497086037     
           2  0.10994623586461343     
           3   4.4013685448238304E-002
           4  -3.2338041647415203E-002
           5  0.49031379816709081     
           6  0.72302882928313672     
           7 -0.14995762633735812     
           8   4.0285283921919213E-002
           9  0.21138684847230496     
          10   1.4008958617655349     
          11  0.13798464810255404     
          12  0.13206550070181336     
          13   9.4370418731141839E-002
          14   9.9056182965470904E-002
          15  -4.8241905367880422E-002
          16  -4.0459675728487292E-002
          17 -0.81443232917009534     
          18  0.78355893199602444     
          19  0.27438045306423231     
          20   5.2854662742076196E-002
