      -----------------------------------------------------------      
     |                   =====================                   |     
     |                           x T B                           |     
     |                   =====================                   |     
     |                         S. Grimme                         |     
     |          Mulliken Center for Theoretical Chemistry        |     
     |                    University of Bonn                     |     
      -----------------------------------------------------------      

   * xtb version 6.2.2 (9d81278992624c895f80dd42a50cac0aa55982e2) compiled by '@Darwin' on 04/03/2020

   xtb is free software: you can redistribute it and/or modify it under
   the terms of the GNU Lesser General Public License as published by
   the Free Software Foundation, either version 3 of the License, or
   (at your option) any later version.
   
   xtb is distributed in the hope that it will be useful,
   but WITHOUT ANY WARRANTY; without even the implied warranty of
   MERCHANTABILITY or FITNESS FOR A PARTICULAR PURPOSE.  See the
   GNU Lesser General Public License for more details.
   
   Cite this work as:
   * S. Grimme, C. Bannwarth, P. Shushkov, J. Chem. Theory Comput., 2017,
     13, 1989-2009. DOI: 10.1021/acs.jctc.7b00118
   * C. Bannwarth, S. Ehlert and S. Grimme., J. Chem. Theory Comput., 2019,
     15, 1652-1671. DOI: 10.1021/acs.jctc.8b01176
   * P. Pracht, E. Caldeweyher, S. Ehlert, S. Grimme, ChemRxiv, 2019, preprint.
     DOI: 10.26434/chemrxiv.8326202.v1
   
   for DFT-D4:
   * E. Caldeweyher, C. Bannwarth and S. Grimme, J. Chem. Phys., 2017,
     147, 034112. DOI: 10.1063/1.4993215
   * E. Caldeweyher, S. Ehlert, A. Hansen, H. Neugebauer, S. Spicher,
     C. Bannwarth and S. Grimme, J. Chem. Phys., 2019, 150, 154122.
     DOI: 10.1063/1.5090222
   
   for sTDA-xTB:
   * S. Grimme and C. Bannwarth, J. Chem. Phys., 2016, 145, 054103.
     DOI: 10.1063/1.4959605
   
   in the mass-spec context:
   * V. Asgeirsson, C. Bauer and S. Grimme, Chem. Sci., 2017, 8, 4879.
     DOI: 10.1039/c7sc00601b
   
   for metadynamics refer to:
   * S. Grimme, J. Chem. Theory Comput., 2019, 155, 2847-2862
     DOI: 10.1021/acs.jctc.9b00143
   
   with help from (in alphabetical order)
   C. Bannwarth, F. Bohle, G. Brandenburg, E. Caldeweyher, M. Checinski,
   S. Dohm, S. Ehlert, S. Ehrlich, F. März, H. Neugebauer, J. Pisarek,
   P. Pracht, P. Shushkov, and S. Spicher.
   
 * started run on 2020/05/12 at 11:43:58.337     

           -------------------------------------------------
          |                Calculation Setup                |
           -------------------------------------------------

          program call               : xtb --input C4N1_3_S_3.input C4N1_3_S_3.xyz --ohess --molden --namespace C4N1_3_S_3 output.out
          calculation namespace      : C4N1_3_S_3
          coordinate file            : C4N1_3_S_3.xyz
          number of atoms            :                     5
          number of electrons        :                    21
          charge                     :                     0
          spin                       :                   1.5
          first test random number   :      0.04486473563509

   ID    Z sym.   atoms
    1    6 C      1, 3-5
    2    7 N      2

           -------------------------------------------------
          |                 G F N 2 - x T B                 |
           -------------------------------------------------

        Reference                      10.1021/acs.jctc.8b01176
      * Hamiltonian:
        H0-scaling (s, p, d)           1.850000    2.230000    2.230000
        zeta-weighting                 0.500000
      * Dispersion:
        s8                             2.700000
        a1                             0.520000
        a2                             5.000000
        s9                             5.000000
      * Repulsion:
        kExp                           1.500000    1.000000
        rExp                           1.000000
      * Coulomb:
        alpha                          2.000000
        third order                    shell-resolved
        anisotropic                    true
        a3                             3.000000
        a5                             4.000000
        cn-shift                       1.200000
        cn-exp                         4.000000
        max-rad                        5.000000


          ...................................................
          :                      SETUP                      :
          :.................................................:
          :  # basis functions                  20          :
          :  # atomic orbitals                  20          :
          :  # shells                           10          :
          :  # electrons                        21          :
          :  max. iterations                   250          :
          :  Hamiltonian                  GFN2-xTB          :
          :  restarted?                      false          :
          :  GBSA solvation                  false          :
          :  PC potential                    false          :
          :  electronic temp.          300.0000000     K    :
          :  accuracy                    1.0000000          :
          :  -> integral cutoff          0.2500000E+02      :
          :  -> integral neglect         0.1000000E-07      :
          :  -> SCF convergence          0.1000000E-05 Eh   :
          :  -> wf. convergence          0.1000000E-03 e    :
          :  Broyden damping             0.4000000          :
          ...................................................

 iter      E             dE          RMSdq      gap      omega  full diag
   1    -10.8013088 -0.108013E+02  0.112E+01    0.62       0.0  T
   2    -10.8161882 -0.148794E-01  0.692E+00    0.53       1.0  T
   3    -10.4950879  0.321100E+00  0.701E+00    0.57       1.0  T
   4    -10.2640697  0.231018E+00  0.808E+00    0.46       1.0  T
   5    -10.8006262 -0.536557E+00  0.223E+00    0.44       1.0  T
   6    -10.8401127 -0.394865E-01  0.761E-01    0.54       1.0  T
   7    -10.8406052 -0.492499E-03  0.647E-01    0.52       1.0  T
   8    -10.8409284 -0.323114E-03  0.422E-01    0.53       1.0  T
   9    -10.8381612  0.276714E-02  0.675E-01    0.53       1.0  T
  10    -10.8425529 -0.439169E-02  0.822E-02    0.54       1.0  T
  11    -10.8425982 -0.452709E-04  0.255E-02    0.54       1.8  T
  12    -10.8426015 -0.332018E-05  0.679E-03    0.54       6.6  T
  13    -10.8426017 -0.213670E-06  0.277E-03    0.54      16.2  T
  14    -10.8426017 -0.215696E-07  0.863E-04    0.54      51.8  T
  15    -10.8426017 -0.639930E-08  0.136E-04    0.54     328.1  T

   *** convergence criteria satisfied after 15 iterations ***

         #    Occupation            Energy/Eh            Energy/eV
      -------------------------------------------------------------
         1        2.0000           -0.7462442             -20.3063
       ...           ...                  ...                  ...
         6        2.0000           -0.5473313             -14.8936
         7        2.0000           -0.5318307             -14.4718
         8        2.0000           -0.5228465             -14.2274
         9        1.9988           -0.4683924             -12.7456
        10        1.0012           -0.4556652             -12.3993
        11        1.0000           -0.4238365             -11.5332
        12        1.0000           -0.4093531             -11.1391 (HOMO)
        13        0.0000           -0.3896613             -10.6032 (LUMO)
        14                         -0.3807686             -10.3612
        15                         -0.3711444             -10.0994
        16                         -0.3368651              -9.1666
        17                         -0.0446768              -1.2157
       ...                                ...                  ...
        20                          0.0741374               2.0174
      -------------------------------------------------------------
                  HL-Gap            0.0196918 Eh            0.5358 eV
             Fermi-level           -0.4307680 Eh          -11.7218 eV

 SCC (total)                   0 d,  0 h,  0 min,  0.004 sec
 SCC setup                      ...        0 min,  0.000 sec (  3.914%)
 Dispersion                     ...        0 min,  0.000 sec (  0.905%)
 integral evaluation            ...        0 min,  0.001 sec ( 27.871%)
 zeroth order Hamiltonian       ...        0 min,  0.000 sec (  0.424%)
 iterations                     ...        0 min,  0.002 sec ( 36.916%)
 molecular gradient             ...        0 min,  0.001 sec ( 28.188%)
 printout                       ...        0 min,  0.000 sec (  1.522%)

         :::::::::::::::::::::::::::::::::::::::::::::::::::::
         ::                     SUMMARY                     ::
         :::::::::::::::::::::::::::::::::::::::::::::::::::::
         :: total energy             -10.797451440302 Eh    ::
         :: gradient norm              0.288650776425 Eh/a0 ::
         :: HOMO-LUMO gap              0.535840807528 eV    ::
         ::.................................................::
         :: SCC energy               -10.842601734224 Eh    ::
         :: -> isotropic ES           -0.045354593482 Eh    ::
         :: -> anisotropic ES         -0.000306018062 Eh    ::
         :: -> anisotropic XC          0.008222851409 Eh    ::
         :: -> dispersion             -0.003231817103 Eh    ::
         :: repulsion energy           0.045150047623 Eh    ::
         :: add. restraining           0.000000000000 Eh    ::
         :::::::::::::::::::::::::::::::::::::::::::::::::::::

      ----------------------------------------------------------- 
     |                   =====================                   |
     |                        A N C O P T                        |
     |                   =====================                   |
     |               Approximate Normal Coordinate               |
     |                Rational Function Optimizer                |
      ----------------------------------------------------------- 

          ...................................................
          :                      SETUP                      :
          :.................................................:
          :   optimization level            normal          :
          :   max. optcycles                   200          :
          :   ANC micro-cycles                  20          :
          :   degrees of freedom                 9          :
          :.................................................:
          :   RF solver                   davidson          :
          :   write xtbopt.log                true          :
          :   linear?                        false          :
          :   energy convergence         0.5000000E-05 Eh   :
          :   grad. convergence          0.1000000E-02 Eh/α :
          :   maximium RF displ.         1.0000000          :
          :   Hlow (freq-cutoff)         0.1000000E-01      :
          :   Hmax (freq-cutoff)         5.0000000          :
          :   S6 in model hess.         20.0000000          :
          ...................................................

generating ANC from model Hessian ...
Using Lindh-Hessian (1995)
 Shifting diagonal of input Hessian by    1.5020894744995975E-003
 Lowest  eigenvalues of input Hessian
   -0.000000   -0.000000   -0.000000   -0.000000    0.000000    0.000000
    0.010000    0.026753    0.111330    0.111977    0.143386    0.613163
    0.829863    1.164325    1.210331
 Highest eigenvalues
    0.111977    0.143386    0.613163    0.829863    1.164325    1.210331


........................................................................
.............................. CYCLE    1 ..............................
........................................................................
   1    -10.8426017 -0.108426E+02  0.550E-05    0.54       0.0  T
   2    -10.8426017  0.434225E-09  0.223E-04    0.54     200.7  T
   3    -10.8426017 -0.455953E-09  0.213E-05    0.54    2095.6  T
     SCC iter.                  ...        0 min,  0.001 sec
     gradient                   ...        0 min,  0.001 sec
 * total energy  :   -10.7974514 Eh     change       -0.1201677E-08 Eh
   gradient norm :     0.2886496 Eh/α   predicted     0.0000000E+00 (-100.00%)
   displ. norm   :     0.4028002 α      lambda       -0.1072005E+00
   maximum displ.:     0.3421549 α      in ANC's #6, #2, #9, ...

........................................................................
.............................. CYCLE    2 ..............................
........................................................................
   1    -10.9794980 -0.109795E+02  0.242E+00    0.78       0.0  T
   2    -10.9519330  0.275650E-01  0.269E+00    0.78       1.0  T
   3    -10.9764659 -0.245329E-01  0.175E+00    0.80       1.0  T
   4    -10.9860516 -0.958574E-02  0.873E-01    0.77       1.0  T
   5    -10.9897213 -0.366971E-02  0.389E-01    0.80       1.0  T
   6    -10.9906638 -0.942459E-03  0.154E-01    0.79       1.0  T
   7    -10.9907358 -0.720378E-04  0.166E-02    0.79       2.7  T
   8    -10.9907324  0.340610E-05  0.210E-02    0.79       2.1  T
   9    -10.9907343 -0.188304E-05  0.150E-02    0.79       3.0  T
  10    -10.9907360 -0.171501E-05  0.743E-04    0.79      60.2  T
  11    -10.9907360 -0.129632E-08  0.225E-04    0.79     198.7  T
  12    -10.9907360 -0.235936E-10  0.270E-05    0.79    1656.9  T
     SCC iter.                  ...        0 min,  0.001 sec
     gradient                   ...        0 min,  0.001 sec
 * total energy  :   -10.8885127 Eh     change       -0.9106129E-01 Eh
   gradient norm :     0.1784313 Eh/α   predicted    -0.6229678E-01 ( -31.59%)
   displ. norm   :     0.5094992 α      lambda       -0.8231922E-01
   maximum displ.:     0.3915471 α      in ANC's #6, #2, #9, ...

........................................................................
.............................. CYCLE    3 ..............................
........................................................................
   1    -11.1778997 -0.111779E+02  0.308E+00    1.28       0.0  T
   2    -11.1820528 -0.415313E-02  0.198E+00    1.27       1.0  T
   3    -11.1794504  0.260248E-02  0.126E+00    1.27       1.0  T
   4    -11.1828874 -0.343699E-02  0.484E-01    1.26       1.0  T
   5    -11.1841124 -0.122503E-02  0.158E-01    1.27       1.0  T
   6    -11.1841542 -0.418391E-04  0.216E-02    1.27       2.1  T
   7    -11.1841548 -0.587771E-06  0.126E-02    1.27       3.6  T
   8    -11.1841541  0.736026E-06  0.149E-02    1.27       3.0  T
   9    -11.1841556 -0.157783E-05  0.233E-03    1.27      19.2  T
  10    -11.1841557 -0.215242E-07  0.156E-04    1.27     286.7  T
  11    -11.1841557 -0.747491E-11  0.279E-05    1.27    1604.9  T
     SCC iter.                  ...        0 min,  0.001 sec
     gradient                   ...        0 min,  0.001 sec
 * total energy  :   -10.8740795 Eh     change        0.1443319E-01 Eh
   gradient norm :     0.5580791 Eh/α   predicted    -0.5184421E-01 (-459.20%)
   displ. norm   :     0.3658762 α      lambda       -0.1399404E+00
   maximum displ.:     0.3009056 α      in ANC's #2, #7, #5, ...

........................................................................
.............................. CYCLE    4 ..............................
........................................................................
   1    -11.0844136 -0.110844E+02  0.119E+00    1.27       0.0  T
   2    -11.0850015 -0.587815E-03  0.807E-01    1.27       1.0  T
   3    -11.0847228  0.278686E-03  0.319E-01    1.27       1.0  T
   4    -11.0851611 -0.438337E-03  0.964E-02    1.27       1.0  T
   5    -11.0851171  0.439858E-04  0.111E-01    1.27       1.0  T
   6    -11.0851730 -0.559304E-04  0.443E-02    1.27       1.0  T
   7    -11.0851758 -0.270237E-05  0.643E-03    1.27       7.0  T
   8    -11.0851744  0.131822E-05  0.125E-02    1.27       3.6  T
   9    -11.0851758 -0.135810E-05  0.147E-03    1.27      30.3  T
  10    -11.0851758 -0.119551E-07  0.247E-04    1.27     181.4  T
  11    -11.0851758 -0.103473E-09  0.531E-05    1.27     842.8  T
     SCC iter.                  ...        0 min,  0.001 sec
     gradient                   ...        0 min,  0.001 sec
 * total energy  :   -10.9257993 Eh     change       -0.5171976E-01 Eh
   gradient norm :     0.0806088 Eh/α   predicted    -0.7933681E-01 (  53.40%)
   displ. norm   :     0.5830334 α      lambda       -0.1783944E-01
   maximum displ.:     0.5536964 α      in ANC's #2, #5, #6, ...

........................................................................
.............................. CYCLE    5 ..............................
........................................................................
   1    -11.0694862 -0.110695E+02  0.203E+00    1.38       0.0  T
   2    -11.0701549 -0.668647E-03  0.116E+00    1.47       1.0  T
   3    -11.0622702  0.788463E-02  0.127E+00    1.45       1.0  T
   4    -11.0697624 -0.749218E-02  0.525E-01    1.37       1.0  T
   5    -11.0714331 -0.167067E-02  0.751E-02    1.45       1.0  T
   6    -11.0714406 -0.753534E-05  0.562E-02    1.43       1.0  T
   7    -11.0714509 -0.102880E-04  0.818E-03    1.44       5.5  T
   8    -11.0714494  0.156725E-05  0.151E-02    1.44       3.0  T
   9    -11.0714513 -0.194507E-05  0.245E-03    1.44      18.3  T
  10    -11.0714513 -0.978754E-08  0.250E-04    1.44     178.9  T
  11    -11.0714513 -0.829274E-10  0.634E-05    1.44     705.6  T
     SCC iter.                  ...        0 min,  0.001 sec
     gradient                   ...        0 min,  0.001 sec
 * total energy  :   -10.9330836 Eh     change       -0.7284256E-02 Eh
   gradient norm :     0.1065137 Eh/α   predicted    -0.1195181E-01 (  64.08%)
   displ. norm   :     0.1231479 α      lambda       -0.8914467E-02
   maximum displ.:     0.0834434 α      in ANC's #3, #6, #9, ...

........................................................................
.............................. CYCLE    6 ..............................
........................................................................
   1    -11.1020415 -0.111020E+02  0.680E-01    1.49       0.0  T
   2    -11.1024569 -0.415378E-03  0.417E-01    1.39       1.0  T
   3    -11.1025472 -0.902835E-04  0.237E-01    1.45       1.0  T
   4    -11.1025767 -0.295089E-04  0.846E-02    1.42       1.0  T
   5    -11.1025921 -0.154178E-04  0.577E-02    1.43       1.0  T
   6    -11.1026083 -0.161638E-04  0.275E-02    1.43       1.6  T
   7    -11.1026098 -0.148161E-05  0.370E-03    1.43      12.1  T
   8    -11.1026093  0.469016E-06  0.793E-03    1.43       5.6  T
   9    -11.1026098 -0.502289E-06  0.484E-04    1.43      92.4  T
  10    -11.1026098 -0.777902E-09  0.150E-04    1.43     297.5  T
     SCC iter.                  ...        0 min,  0.001 sec
     gradient                   ...        0 min,  0.002 sec
 * total energy  :   -10.9396157 Eh     change       -0.6532087E-02 Eh
   gradient norm :     0.0499180 Eh/α   predicted    -0.4524830E-02 ( -30.73%)
   displ. norm   :     0.2829779 α      lambda       -0.6699637E-02
   maximum displ.:     0.1994816 α      in ANC's #2, #6, #3, ...

........................................................................
.............................. CYCLE    7 ..............................
........................................................................
   1    -11.1250218 -0.111250E+02  0.125E+00    1.19       0.0  T
   2    -11.1250670 -0.451782E-04  0.731E-01    1.21       1.0  T
   3    -11.1190741  0.599296E-02  0.863E-01    1.13       1.0  T
   4    -11.1252463 -0.617228E-02  0.996E-02    1.21       1.0  T
   5    -11.1252867 -0.403271E-04  0.563E-02    1.19       1.0  T
   6    -11.1252905 -0.386150E-05  0.309E-02    1.20       1.4  T
   7    -11.1252911 -0.550922E-06  0.924E-03    1.19       4.8  T
   8    -11.1252913 -0.244791E-06  0.706E-03    1.19       6.3  T
   9    -11.1252916 -0.282128E-06  0.187E-03    1.20      23.9  T
  10    -11.1252916 -0.417638E-08  0.985E-05    1.19     454.1  T
  11    -11.1252916 -0.842881E-11  0.574E-05    1.19     779.2  T
     SCC iter.                  ...        0 min,  0.001 sec
     gradient                   ...        0 min,  0.001 sec
 * total energy  :   -10.9443512 Eh     change       -0.4735586E-02 Eh
   gradient norm :     0.0215215 Eh/α   predicted    -0.3618066E-02 ( -23.60%)
   displ. norm   :     0.3443291 α      lambda       -0.3813515E-02
   maximum displ.:     0.2764318 α      in ANC's #2, #6, #9, ...

........................................................................
.............................. CYCLE    8 ..............................
........................................................................
   1    -11.1234061 -0.111234E+02  0.148E+00    0.69       0.0  T
   2    -11.1230855  0.320646E-03  0.842E-01    0.82       1.0  T
   3    -11.0772752  0.458103E-01  0.254E+00    0.58       1.0  T
   4    -11.1240922 -0.468170E-01  0.242E-01    0.73       1.0  T
   5    -11.1241254 -0.331613E-04  0.130E-01    0.76       1.0  T
   6    -11.1241354 -0.997196E-05  0.106E-01    0.76       1.0  T
   7    -11.1241287  0.668083E-05  0.941E-02    0.76       1.0  T
   8    -11.1241464 -0.177345E-04  0.787E-02    0.76       1.0  T
   9    -11.1241714 -0.249380E-04  0.526E-02    0.76       1.0  T
  10    -11.1241772 -0.581796E-05  0.329E-02    0.75       1.4  T
  11    -11.1241791 -0.194524E-05  0.225E-02    0.75       2.0  T
  12    -11.1241809 -0.172426E-05  0.658E-04    0.75      67.9  T
  13    -11.1241809 -0.661736E-09  0.243E-04    0.75     184.2  T
  14    -11.1241809 -0.195136E-09  0.149E-04    0.75     299.2  T
     SCC iter.                  ...        0 min,  0.001 sec
     gradient                   ...        0 min,  0.001 sec
 * total energy  :   -10.9469497 Eh     change       -0.2598419E-02 Eh
   gradient norm :     0.0427568 Eh/α   predicted    -0.2132820E-02 ( -17.92%)
   displ. norm   :     0.2831503 α      lambda       -0.3086840E-02
   maximum displ.:     0.1821774 α      in ANC's #2, #6, #9, ...

........................................................................
.............................. CYCLE    9 ..............................
........................................................................
   1    -11.1359951 -0.111360E+02  0.146E+00    0.22       0.0  T
   2    -11.1361206 -0.125500E-03  0.828E-01    0.27       1.0  T
   3    -11.1294332  0.668739E-02  0.907E-01    0.16       1.0  T
   4    -11.1356164 -0.618319E-02  0.328E-01    0.27       1.0  T
   5    -11.1315573  0.405912E-02  0.942E-01    0.27       1.0  T
   6    -11.1361044 -0.454715E-02  0.209E-01    0.26       1.0  T
   7    -11.1363186 -0.214163E-03  0.501E-02    0.26       1.0  T
   8    -11.1363210 -0.241849E-05  0.163E-02    0.26       2.7  T
   9    -11.1363218 -0.773264E-06  0.721E-03    0.26       6.2  T
  10    -11.1363220 -0.196889E-06  0.114E-03    0.26      39.2  T
  11    -11.1363220 -0.384217E-08  0.674E-04    0.26      66.3  T
  12    -11.1363220 -0.217711E-08  0.228E-04    0.26     195.8  T
     SCC iter.                  ...        0 min,  0.002 sec
     gradient                   ...        0 min,  0.001 sec
 * total energy  :   -10.9489537 Eh     change       -0.2004056E-02 Eh
   gradient norm :     0.0252379 Eh/α   predicted    -0.1667158E-02 ( -16.81%)
   displ. norm   :     0.3688979 α      lambda       -0.3412984E-02
   maximum displ.:     0.2388725 α      in ANC's #2, #6, #9, ...

........................................................................
.............................. CYCLE   10 ..............................
........................................................................
   1    -11.0021173 -0.110021E+02  0.591E+00    0.53       0.0  T
   2     -9.5875221  0.141460E+01  0.108E+01    0.63       1.0  T
   3    -10.9308713 -0.134335E+01  0.476E+00    0.46       1.0  T
   4    -10.5848210  0.346050E+00  0.634E+00    0.31       1.0  T
   5    -11.1256477 -0.540827E+00  0.327E+00    0.14       1.0  T
   6    -11.1181165  0.753119E-02  0.241E+00    0.03       1.0  T
   7    -11.0621947  0.559219E-01  0.382E+00    0.11       1.0  T
   8    -11.0807321 -0.185375E-01  0.229E+00    0.00       1.0  T
   9    -11.0549598  0.257723E-01  0.282E+00    0.02       1.0  T
  10    -11.0764076 -0.214478E-01  0.252E+00    0.03       1.0  T
  11    -11.1341384 -0.577308E-01  0.541E-01    0.07       1.0  T
  12    -11.1341442 -0.580101E-05  0.494E-01    0.06       1.0  T
  13    -11.1335833  0.560917E-03  0.345E-01    0.05       1.0  T
  14    -11.1341377 -0.554446E-03  0.220E-01    0.05       1.0  T
  15    -11.1343475 -0.209815E-03  0.161E-01    0.06       1.0  T
  16    -11.1345353 -0.187789E-03  0.630E-02    0.06       1.0  T
  17    -11.1345505 -0.152049E-04  0.498E-02    0.06       1.0  T
  18    -11.1345718 -0.212250E-04  0.225E-02    0.07       2.0  T
  19    -11.1345721 -0.289369E-06  0.967E-03    0.07       4.6  T
  20    -11.1345721 -0.433104E-07  0.217E-03    0.06      20.6  T
  21    -11.1345721 -0.340627E-07  0.791E-04    0.06      56.6  T
  22    -11.1345721 -0.244275E-08  0.208E-04    0.06     214.7  T
     SCC iter.                  ...        0 min,  0.002 sec
     gradient                   ...        0 min,  0.001 sec
 * total energy  :   -10.9544104 Eh     change       -0.5456675E-02 Eh
   gradient norm :     0.1751467 Eh/α   predicted    -0.1938717E-02 ( -64.47%)
   displ. norm   :     0.6981654 α      lambda       -0.9742852E-01
   maximum displ.:     0.4297161 α      in ANC's #3, #5, #6, ...

........................................................................
.............................. CYCLE   11 ..............................
........................................................................
   1    -11.2313494 -0.112313E+02  0.728E+00    4.45       0.0  T
   2    -10.7672069  0.464142E+00  0.711E+00    3.05       1.0  T
   3    -10.6342062  0.133001E+00  0.697E+00    2.96       1.0  T
   4    -11.2239535 -0.589747E+00  0.318E+00    4.24       1.0  T
   5    -11.2527406 -0.287871E-01  0.194E+00    4.00       1.0  T
   6    -11.2315662  0.211744E-01  0.217E+00    4.09       1.0  T
   7    -11.2598084 -0.282422E-01  0.869E-01    3.87       1.0  T
   8    -11.2619927 -0.218429E-02  0.391E-01    3.76       1.0  T
   9    -11.2625169 -0.524236E-03  0.526E-01    3.72       1.0  T
  10    -11.2611051  0.141189E-02  0.961E-01    3.66       1.0  T
  11    -11.2609267  0.178405E-03  0.897E-01    3.65       1.0  T
  12    -11.2623849 -0.145830E-02  0.246E-01    3.65       1.0  T
  13    -11.2626775 -0.292506E-03  0.239E-01    3.67       1.0  T
  14    -11.2626987 -0.212841E-04  0.398E-02    3.66       1.1  T
  15    -11.2627069 -0.814819E-05  0.554E-02    3.66       1.0  T
  16    -11.2627120 -0.506815E-05  0.198E-02    3.66       2.3  T
  17    -11.2627126 -0.661327E-06  0.373E-03    3.66      12.0  T
  18    -11.2627126 -0.783519E-08  0.107E-03    3.66      41.9  T
  19    -11.2627126 -0.225651E-08  0.529E-04    3.66      84.6  T
  20    -11.2627126 -0.234332E-09  0.129E-04    3.66     346.1  T
     SCC iter.                  ...        0 min,  0.002 sec
     gradient                   ...        0 min,  0.001 sec
 * total energy  :   -10.9923736 Eh     change       -0.3796324E-01 Eh
   gradient norm :     0.2135435 Eh/α   predicted    -0.7245930E-01 (  90.87%)
   displ. norm   :     0.2933628 α      lambda       -0.5439554E-01
   maximum displ.:     0.2474689 α      in ANC's #3, #2, #5, ...

........................................................................
.............................. CYCLE   12 ..............................
........................................................................
   1    -11.0611906 -0.110612E+02  0.317E+00    1.85       0.0  T
   2    -10.2966960  0.764495E+00  0.825E+00    2.38       1.0  T
   3    -11.0878349 -0.791139E+00  0.269E+00    2.58       1.0  T
   4    -11.1520702 -0.642353E-01  0.171E+00    2.19       1.0  T
   5    -11.1488941  0.317604E-02  0.152E+00    2.22       1.0  T
   6    -11.1626235 -0.137293E-01  0.225E-01    1.96       1.0  T
   7    -11.1576720  0.495150E-02  0.693E-01    1.94       1.0  T
   8    -11.1627031 -0.503113E-02  0.694E-02    1.98       1.0  T
   9    -11.1626599  0.432666E-04  0.860E-02    1.98       1.0  T
  10    -11.1627145 -0.545894E-04  0.119E-02    1.97       3.8  T
  11    -11.1627148 -0.385273E-06  0.756E-03    1.97       5.9  T
  12    -11.1627150 -0.133036E-06  0.222E-03    1.97      20.1  T
  13    -11.1627150 -0.347526E-07  0.116E-03    1.97      38.7  T
  14    -11.1627150 -0.973112E-08  0.149E-04    1.97     300.5  T
  15    -11.1627150  0.254504E-09  0.186E-04    1.97     239.8  T
     SCC iter.                  ...        0 min,  0.001 sec
     gradient                   ...        0 min,  0.001 sec
 * total energy  :   -10.9998007 Eh     change       -0.7427121E-02 Eh
   gradient norm :     0.1377725 Eh/α   predicted    -0.2953845E-01 ( 297.71%)
   displ. norm   :     0.5535303 α      lambda       -0.3239283E-01
   maximum displ.:     0.3531194 α      in ANC's #2, #6, #5, ...

........................................................................
.............................. CYCLE   13 ..............................
........................................................................
   1    -11.1390632 -0.111391E+02  0.272E+00    2.65       0.0  T
   2    -11.0952879  0.437754E-01  0.274E+00    2.81       1.0  T
   3    -11.1279392 -0.326514E-01  0.205E+00    2.72       1.0  T
   4    -11.1462917 -0.183524E-01  0.734E-01    2.60       1.0  T
   5    -11.1504353 -0.414368E-02  0.241E-01    2.70       1.0  T
   6    -11.1508318 -0.396505E-03  0.802E-02    2.69       1.0  T
   7    -11.1508640 -0.321742E-04  0.211E-02    2.69       2.1  T
   8    -11.1508653 -0.129833E-05  0.112E-02    2.69       4.0  T
   9    -11.1508653  0.564442E-07  0.648E-03    2.69       6.9  T
  10    -11.1508656 -0.293003E-06  0.746E-04    2.69      59.9  T
  11    -11.1508656  0.170001E-09  0.282E-04    2.69     158.7  T
     SCC iter.                  ...        0 min,  0.001 sec
     gradient                   ...        0 min,  0.002 sec
 * total energy  :   -10.9683063 Eh     change        0.3149446E-01 Eh
   gradient norm :     0.2564123 Eh/α   predicted    -0.2115893E-01 (-167.18%)
   displ. norm   :     0.4184816 α      lambda       -0.7401861E-01
   maximum displ.:     0.3171106 α      in ANC's #2, #5, #6, ...

........................................................................
.............................. CYCLE   14 ..............................
........................................................................
   1    -11.1802596 -0.111803E+02  0.210E+00    2.72       0.0  T
   2    -10.6459553  0.534304E+00  0.599E+00    2.04       1.0  T
   3    -11.1264880 -0.480533E+00  0.249E+00    3.23       1.0  T
   4    -11.1678366 -0.413486E-01  0.167E+00    3.00       1.0  T
   5    -11.1777038 -0.986717E-02  0.120E+00    2.92       1.0  T
   6    -11.1796012 -0.189742E-02  0.112E+00    2.89       1.0  T
   7    -11.1875793 -0.797814E-02  0.715E-01    2.77       1.0  T
   8    -11.1875881 -0.881426E-05  0.715E-01    2.77       1.0  T
   9    -11.1893717 -0.178353E-02  0.537E-01    2.72       1.0  T
  10    -11.1906123 -0.124067E-02  0.369E-01    2.67       1.0  T
  11    -11.1914865 -0.874210E-03  0.179E-01    2.61       1.0  T
  12    -11.1917541 -0.267568E-03  0.401E-02    2.56       1.1  T
  13    -11.1917636 -0.945437E-05  0.257E-02    2.54       1.7  T
  14    -11.1917685 -0.493195E-05  0.679E-03    2.54       6.6  T
  15    -11.1917689 -0.373475E-06  0.210E-03    2.55      21.3  T
  16    -11.1917689 -0.377741E-07  0.582E-05    2.55     768.4  T
  17    -11.1917689  0.420931E-09  0.248E-04    2.55     180.4  T
     SCC iter.                  ...        0 min,  0.002 sec
     gradient                   ...        0 min,  0.001 sec
 * total energy  :   -11.0092406 Eh     change       -0.4093434E-01 Eh
   gradient norm :     0.0400431 Eh/α   predicted    -0.4349063E-01 (   6.24%)
   displ. norm   :     0.2006874 α      lambda       -0.4154175E-02
   maximum displ.:     0.1682843 α      in ANC's #2, #3, #6, ...

........................................................................
.............................. CYCLE   15 ..............................
........................................................................
   1    -11.2264825 -0.112265E+02  0.917E-01    2.73       0.0  T
   2    -10.7893763  0.437106E+00  0.609E+00    2.36       1.0  T
   3    -11.2291695 -0.439793E+00  0.505E-01    2.68       1.0  T
   4    -11.2281981  0.971389E-03  0.458E-01    2.69       1.0  T
   5    -11.2285817 -0.383633E-03  0.273E-01    2.71       1.0  T
   6    -11.2292351 -0.653337E-03  0.185E-01    2.68       1.0  T
   7    -11.2292990 -0.639099E-04  0.163E-01    2.67       1.0  T
   8    -11.2293368 -0.378090E-04  0.147E-01    2.67       1.0  T
   9    -11.2293611 -0.242710E-04  0.137E-01    2.67       1.0  T
  10    -11.2294083 -0.472292E-04  0.119E-01    2.66       1.0  T
  11    -11.2294148 -0.651409E-05  0.116E-01    2.66       1.0  T
  12    -11.2294432 -0.283544E-04  0.101E-01    2.66       1.0  T
  13    -11.2295279 -0.846926E-04  0.300E-02    2.64       1.5  T
  14    -11.2295358 -0.799358E-05  0.237E-03    2.63      18.9  T
  15    -11.2295356  0.243023E-06  0.524E-03    2.63       8.5  T
  16    -11.2295359 -0.265997E-06  0.168E-04    2.63     266.9  T
  17    -11.2295359  0.309464E-08  0.589E-04    2.63      76.0  T
     SCC iter.                  ...        0 min,  0.002 sec
     gradient                   ...        0 min,  0.001 sec
 * total energy  :   -11.0075936 Eh     change        0.1647061E-02 Eh
   gradient norm :     0.0714666 Eh/α   predicted    -0.2160744E-02 (-231.19%)
   displ. norm   :     0.1372006 α      lambda       -0.4973194E-02
   maximum displ.:     0.1188941 α      in ANC's #2, #6, #3, ...

........................................................................
.............................. CYCLE   16 ..............................
........................................................................
   1    -11.2073005 -0.112073E+02  0.692E-01    2.61       0.0  T
   2    -11.2033154  0.398517E-02  0.743E-01    2.87       1.0  T
   3    -11.2079938 -0.467848E-02  0.375E-01    2.60       1.0  T
   4    -11.2087890 -0.795121E-03  0.682E-02    2.69       1.0  T
   5    -11.2087789  0.101078E-04  0.509E-02    2.67       1.0  T
   6    -11.2087911 -0.122312E-04  0.293E-02    2.68       1.5  T
   7    -11.2087943 -0.324393E-05  0.476E-03    2.68       9.4  T
   8    -11.2087943  0.487642E-07  0.469E-03    2.68       9.5  T
   9    -11.2087944 -0.125335E-06  0.947E-04    2.68      47.2  T
  10    -11.2087944 -0.133932E-08  0.172E-04    2.68     260.0  T
     SCC iter.                  ...        0 min,  0.001 sec
     gradient                   ...        0 min,  0.001 sec
 * total energy  :   -11.0100604 Eh     change       -0.2466808E-02 Eh
   gradient norm :     0.0104879 Eh/α   predicted    -0.2533404E-02 (   2.70%)
   displ. norm   :     0.0212878 α      lambda       -0.1839612E-03
   maximum displ.:     0.0182681 α      in ANC's #5, #9, #3, ...

........................................................................
.............................. CYCLE   17 ..............................
........................................................................
   1    -11.2048972 -0.112049E+02  0.169E-01    2.62       0.0  T
   2    -11.2048881  0.906674E-05  0.117E-01    2.61       1.0  T
   3    -11.2048820  0.609769E-05  0.800E-02    2.63       1.0  T
   4    -11.2048849 -0.291835E-05  0.599E-02    2.60       1.0  T
   5    -11.2049231 -0.381541E-04  0.888E-03    2.62       5.0  T
   6    -11.2049234 -0.308279E-06  0.470E-03    2.62       9.5  T
   7    -11.2049235 -0.651780E-07  0.137E-03    2.62      32.7  T
   8    -11.2049235 -0.106674E-07  0.651E-04    2.62      68.7  T
   9    -11.2049235 -0.101926E-08  0.285E-04    2.62     157.1  T
     SCC iter.                  ...        0 min,  0.001 sec
     gradient                   ...        0 min,  0.001 sec
 * total energy  :   -11.0100863 Eh     change       -0.2589271E-04 Eh
   gradient norm :     0.0071029 Eh/α   predicted    -0.9202336E-04 ( 255.40%)
   displ. norm   :     0.0095692 α      lambda       -0.6094812E-04
   maximum displ.:     0.0077914 α      in ANC's #5, #6, #9, ...

........................................................................
.............................. CYCLE   18 ..............................
........................................................................
   1    -11.2070082 -0.112070E+02  0.756E-02    2.65       0.0  T
   2    -11.2070072  0.929722E-06  0.501E-02    2.65       1.0  T
   3    -11.2070051  0.212566E-05  0.357E-02    2.64       1.3  T
   4    -11.2070077 -0.260666E-05  0.206E-02    2.66       2.2  T
   5    -11.2070124 -0.464198E-05  0.315E-03    2.65      14.2  T
   6    -11.2070124 -0.341707E-07  0.176E-03    2.65      25.4  T
   7    -11.2070124 -0.918950E-08  0.263E-04    2.65     170.3  T
   8    -11.2070124  0.128606E-09  0.160E-04    2.65     279.7  T
     SCC iter.                  ...        0 min,  0.001 sec
     gradient                   ...        0 min,  0.001 sec
 * total energy  :   -11.0101185 Eh     change       -0.3218222E-04 Eh
   gradient norm :     0.0015602 Eh/α   predicted    -0.3047788E-04 (  -5.30%)
   displ. norm   :     0.0076866 α      lambda       -0.3789047E-05
   maximum displ.:     0.0053272 α      in ANC's #6, #3, #9, ...

........................................................................
.............................. CYCLE   19 ..............................
........................................................................
   1    -11.2072052 -0.112072E+02  0.338E-02    2.66       0.0  T
   2    -11.2072052  0.196552E-07  0.194E-02    2.66       2.3  T
   3    -11.2072020  0.323505E-05  0.167E-02    2.65       2.7  T
   4    -11.2072054 -0.339158E-05  0.232E-03    2.66      19.3  T
   5    -11.2072054 -0.264439E-07  0.119E-03    2.66      37.5  T
   6    -11.2072054  0.104016E-08  0.850E-04    2.66      52.6  T
   7    -11.2072054 -0.328407E-08  0.511E-04    2.66      87.6  T
     SCC iter.                  ...        0 min,  0.001 sec
     gradient                   ...        0 min,  0.001 sec
 * total energy  :   -11.0101238 Eh     change       -0.5337081E-05 Eh
   gradient norm :     0.0013975 Eh/α   predicted    -0.1895174E-05 ( -64.49%)
   displ. norm   :     0.1237117 α      lambda       -0.5539192E-04
   maximum displ.:     0.0849740 α      in ANC's #6, #3, #9, ...

........................................................................
.............................. CYCLE   20 ..............................
........................................................................
   1    -11.2073832 -0.112074E+02  0.534E-01    2.72       0.0  T
   2    -11.2073308  0.524639E-04  0.315E-01    2.76       1.0  T
   3    -11.2055495  0.178129E-02  0.387E-01    2.63       1.0  T
   4    -11.2074130 -0.186349E-02  0.509E-02    2.75       1.0  T
   5    -11.2074410 -0.280678E-04  0.212E-02    2.73       2.1  T
   6    -11.2074414 -0.362685E-06  0.143E-02    2.73       3.1  T
   7    -11.2074415 -0.129905E-06  0.814E-03    2.73       5.5  T
   8    -11.2074417 -0.205786E-06  0.624E-03    2.73       7.2  T
   9    -11.2074421 -0.317049E-06  0.447E-04    2.73     100.1  T
  10    -11.2074421 -0.951655E-09  0.475E-05    2.73     941.0  T
     SCC iter.                  ...        0 min,  0.001 sec
     gradient                   ...        0 min,  0.002 sec
 * total energy  :   -11.0101725 Eh     change       -0.4874081E-04 Eh
   gradient norm :     0.0038563 Eh/α   predicted    -0.2788611E-04 ( -42.79%)
   displ. norm   :     0.0235573 α      lambda       -0.1559238E-04
   maximum displ.:     0.0153523 α      in ANC's #6, #3, #9, ...
 * RMSD in coord.:     1.5445039 α      energy gain  -0.2127211E+00 Eh

generating ANC from model Hessian ...
Using Lindh-Hessian (1995)
 Shifting diagonal of input Hessian by    7.0040300857154379E-003
 Lowest  eigenvalues of input Hessian
   -0.000000   -0.000000    0.000000    0.000000    0.000000    0.000000
    0.010000    0.070972    0.282677    0.367704    0.655191    0.987136
    1.304474    1.755082    2.718479
 Highest eigenvalues
    0.367704    0.655191    0.987136    1.304474    1.755082    2.718479


........................................................................
.............................. CYCLE   21 ..............................
........................................................................
   1    -11.2075686 -0.112076E+02  0.102E-01    2.73       0.0  T
   2    -11.2075688 -0.195284E-06  0.577E-02    2.73       1.0  T
   3    -11.2075513  0.174987E-04  0.416E-02    2.74       1.1  T
   4    -11.2075688 -0.175501E-04  0.123E-02    2.73       3.6  T
   5    -11.2075702 -0.138012E-05  0.392E-03    2.73      11.4  T
   6    -11.2075702 -0.213428E-07  0.147E-03    2.73      30.4  T
   7    -11.2075702 -0.165965E-08  0.788E-04    2.73      56.7  T
   8    -11.2075702 -0.452321E-08  0.144E-04    2.73     311.6  T
     SCC iter.                  ...        0 min,  0.001 sec
     gradient                   ...        0 min,  0.001 sec
 * total energy  :   -11.0101837 Eh     change       -0.1115823E-04 Eh
   gradient norm :     0.0025166 Eh/α   predicted     0.0000000E+00 (-100.00%)
   displ. norm   :     0.0173664 α      lambda       -0.7868735E-05
   maximum displ.:     0.0172129 α      in ANC's #1, #7, #2, ...

........................................................................
.............................. CYCLE   22 ..............................
........................................................................
   1    -11.2071233 -0.112071E+02  0.109E-01    2.72       0.0  T
   2    -11.2071224  0.828074E-06  0.656E-02    2.73       1.0  T
   3    -11.2070883  0.341379E-04  0.685E-02    2.72       1.0  T
   4    -11.2071232 -0.348844E-04  0.117E-02    2.73       3.8  T
   5    -11.2071241 -0.897439E-06  0.319E-03    2.73      14.0  T
   6    -11.2071241  0.148366E-07  0.276E-03    2.73      16.2  T
   7    -11.2071241 -0.444856E-07  0.115E-03    2.73      38.8  T
   8    -11.2071241 -0.137996E-07  0.136E-04    2.73     328.8  T
   9    -11.2071241 -0.246771E-10  0.365E-05    2.73    1226.7  T
     SCC iter.                  ...        0 min,  0.001 sec
     gradient                   ...        0 min,  0.001 sec
 * total energy  :   -11.0101935 Eh     change       -0.9812366E-05 Eh
   gradient norm :     0.0014156 Eh/α   predicted    -0.3937121E-05 ( -59.88%)
   displ. norm   :     0.0851934 α      lambda       -0.3410823E-04
   maximum displ.:     0.0851523 α      in ANC's #1, #4, #5, ...

........................................................................
.............................. CYCLE   23 ..............................
........................................................................
   1    -11.2062748 -0.112063E+02  0.522E-01    2.72       0.0  T
   2    -11.2061653  0.109535E-03  0.309E-01    2.76       1.0  T
   3    -11.2043225  0.184281E-02  0.480E-01    2.63       1.0  T
   4    -11.2062917 -0.196923E-02  0.579E-02    2.74       1.0  T
   5    -11.2063190 -0.272995E-04  0.178E-02    2.73       2.5  T
   6    -11.2063197 -0.729144E-06  0.148E-02    2.73       3.0  T
   7    -11.2063209 -0.119660E-05  0.644E-03    2.73       6.9  T
   8    -11.2063210 -0.856298E-07  0.732E-04    2.73      61.1  T
   9    -11.2063210 -0.165611E-08  0.320E-04    2.73     139.8  T
     SCC iter.                  ...        0 min,  0.001 sec
     gradient                   ...        0 min,  0.001 sec
 * total energy  :   -11.0103137 Eh     change       -0.1201834E-03 Eh
   gradient norm :     0.0068267 Eh/α   predicted    -0.1710954E-04 ( -85.76%)
   displ. norm   :     0.1798561 α      lambda       -0.3730935E-03
   maximum displ.:     0.1795930 α      in ANC's #1, #4, #2, ...

........................................................................
.............................. CYCLE   24 ..............................
........................................................................
   1    -11.2008089 -0.112008E+02  0.950E-01    2.70       0.0  T
   2    -11.1980500  0.275885E-02  0.693E-01    2.88       1.0  T
   3    -11.1950838  0.296626E-02  0.955E-01    2.58       1.0  T
   4    -11.2013892 -0.630548E-02  0.163E-01    2.79       1.0  T
   5    -11.2015461 -0.156908E-03  0.674E-02    2.76       1.0  T
   6    -11.2015673 -0.211784E-04  0.349E-02    2.76       1.3  T
   7    -11.2015692 -0.183957E-05  0.244E-02    2.76       1.8  T
   8    -11.2015695 -0.330800E-06  0.261E-03    2.76      17.1  T
   9    -11.2015695 -0.159091E-07  0.134E-03    2.76      33.3  T
  10    -11.2015695 -0.314612E-09  0.243E-04    2.76     183.7  T
  11    -11.2015695 -0.110491E-09  0.132E-04    2.76     339.4  T
     SCC iter.                  ...        0 min,  0.001 sec
     gradient                   ...        0 min,  0.001 sec
 * total energy  :   -11.0105225 Eh     change       -0.2088122E-03 Eh
   gradient norm :     0.0292055 Eh/α   predicted    -0.1925802E-03 (  -7.77%)
   displ. norm   :     0.0381567 α      lambda       -0.4347369E-03
   maximum displ.:     0.0283324 α      in ANC's #1, #4, #2, ...

........................................................................
.............................. CYCLE   25 ..............................
........................................................................
   1    -11.2052443 -0.112052E+02  0.214E-01    2.75       0.0  T
   2    -11.2052437  0.621344E-06  0.136E-01    2.75       1.0  T
   3    -11.2051190  0.124697E-03  0.128E-01    2.74       1.0  T
   4    -11.2052470 -0.127999E-03  0.133E-02    2.76       3.4  T
   5    -11.2052451  0.191334E-05  0.158E-02    2.75       2.8  T
   6    -11.2052475 -0.236213E-05  0.260E-03    2.76      17.2  T
   7    -11.2052475 -0.389285E-07  0.114E-03    2.76      39.1  T
   8    -11.2052475  0.218621E-08  0.834E-04    2.76      53.6  T
   9    -11.2052475 -0.521054E-08  0.119E-04    2.76     376.1  T
     SCC iter.                  ...        0 min,  0.001 sec
     gradient                   ...        0 min,  0.001 sec
 * total energy  :   -11.0109035 Eh     change       -0.3810484E-03 Eh
   gradient norm :     0.0220454 Eh/α   predicted    -0.2176851E-03 ( -42.87%)
   displ. norm   :     0.3451211 α      lambda       -0.1659530E-02
   maximum displ.:     0.3140976 α      in ANC's #1, #4, #2, ...

........................................................................
.............................. CYCLE   26 ..............................
........................................................................
   1    -11.1997448 -0.111997E+02  0.146E+00    2.63       0.0  T
   2    -11.1896268  0.101181E-01  0.123E+00    2.90       1.0  T
   3    -11.1857186  0.390821E-02  0.147E+00    2.45       1.0  T
   4    -11.2015133 -0.157947E-01  0.204E-01    2.71       1.0  T
   5    -11.2015938 -0.805044E-04  0.154E-01    2.72       1.0  T
   6    -11.2017530 -0.159287E-03  0.574E-02    2.71       1.0  T
   7    -11.2017564 -0.331403E-05  0.146E-02    2.72       3.1  T
   8    -11.2017580 -0.160147E-05  0.668E-03    2.71       6.7  T
   9    -11.2017582 -0.230600E-06  0.243E-03    2.72      18.4  T
  10    -11.2017582 -0.765610E-09  0.321E-04    2.72     139.4  T
  11    -11.2017582 -0.110685E-10  0.176E-04    2.72     254.1  T
     SCC iter.                  ...        0 min,  0.001 sec
     gradient                   ...        0 min,  0.001 sec
 * total energy  :   -11.0109077 Eh     change       -0.4195027E-05 Eh
   gradient norm :     0.0329027 Eh/α   predicted    -0.9285950E-03 (*******%)
   displ. norm   :     0.1621493 α      lambda       -0.2801565E-02
   maximum displ.:     0.1594563 α      in ANC's #1, #2, #4, ...

........................................................................
.............................. CYCLE   27 ..............................
........................................................................
   1    -11.2226217 -0.112226E+02  0.633E-01    2.76       0.0  T
   2    -11.2186832  0.393850E-02  0.799E-01    2.61       1.0  T
   3    -11.2226086 -0.392542E-02  0.393E-01    2.77       1.0  T
   4    -11.2229515 -0.342921E-03  0.223E-01    2.72       1.0  T
   5    -11.2232518 -0.300232E-03  0.848E-02    2.73       1.0  T
   6    -11.2232726 -0.208521E-04  0.214E-02    2.74       2.1  T
   7    -11.2232723  0.321042E-06  0.181E-02    2.73       2.5  T
   8    -11.2232743 -0.200849E-05  0.668E-03    2.74       6.7  T
   9    -11.2232745 -0.165074E-06  0.170E-03    2.74      26.2  T
  10    -11.2232745 -0.923835E-08  0.282E-04    2.74     158.8  T
  11    -11.2232745 -0.129843E-09  0.182E-05    2.74    2451.7  T
     SCC iter.                  ...        0 min,  0.001 sec
     gradient                   ...        0 min,  0.001 sec
 * total energy  :   -11.0114097 Eh     change       -0.5019220E-03 Eh
   gradient norm :     0.0304986 Eh/α   predicted    -0.1437613E-02 ( 186.42%)
   displ. norm   :     0.0417700 α      lambda       -0.8208458E-03
   maximum displ.:     0.0322786 α      in ANC's #4, #7, #9, ...

........................................................................
.............................. CYCLE   28 ..............................
........................................................................
   1    -11.2134574 -0.112135E+02  0.327E-01    2.73       0.0  T
   2    -11.2133501  0.107328E-03  0.215E-01    2.71       1.0  T
   3    -11.2119642  0.138585E-02  0.442E-01    2.79       1.0  T
   4    -11.2134842 -0.151997E-02  0.373E-02    2.72       1.2  T
   5    -11.2134808  0.340412E-05  0.365E-02    2.72       1.2  T
   6    -11.2134887 -0.786330E-05  0.142E-02    2.72       3.2  T
   7    -11.2134891 -0.469390E-06  0.333E-03    2.72      13.4  T
   8    -11.2134892 -0.518285E-07  0.135E-03    2.72      33.0  T
   9    -11.2134892 -0.613231E-08  0.559E-04    2.72      80.0  T
  10    -11.2134892 -0.229848E-09  0.746E-05    2.72     599.1  T
     SCC iter.                  ...        0 min,  0.001 sec
     gradient                   ...        0 min,  0.001 sec
 * total energy  :   -11.0118052 Eh     change       -0.3955099E-03 Eh
   gradient norm :     0.0046327 Eh/α   predicted    -0.4111402E-03 (   3.95%)
   displ. norm   :     0.0441828 α      lambda       -0.7905348E-04
   maximum displ.:     0.0351491 α      in ANC's #1, #2, #4, ...

........................................................................
.............................. CYCLE   29 ..............................
........................................................................
   1    -11.2132168 -0.112132E+02  0.183E-01    2.70       0.0  T
   2    -11.2130589  0.157892E-03  0.148E-01    2.73       1.0  T
   3    -11.2129184  0.140531E-03  0.213E-01    2.68       1.0  T
   4    -11.2132423 -0.323918E-03  0.173E-02    2.71       2.6  T
   5    -11.2132428 -0.517206E-06  0.141E-02    2.71       3.2  T
   6    -11.2132432 -0.384773E-06  0.100E-02    2.71       4.5  T
   7    -11.2132439 -0.723587E-06  0.209E-03    2.71      21.4  T
   8    -11.2132440 -0.161637E-07  0.640E-04    2.71      69.8  T
   9    -11.2132440 -0.350528E-10  0.305E-04    2.71     146.5  T
     SCC iter.                  ...        0 min,  0.001 sec
     gradient                   ...        0 min,  0.001 sec
 * total energy  :   -11.0118623 Eh     change       -0.5710761E-04 Eh
   gradient norm :     0.0038887 Eh/α   predicted    -0.3960293E-04 ( -30.65%)
   displ. norm   :     0.0421280 α      lambda       -0.6473049E-04
   maximum displ.:     0.0262255 α      in ANC's #1, #2, #3, ...

........................................................................
.............................. CYCLE   30 ..............................
........................................................................
   1    -11.2130337 -0.112130E+02  0.161E-01    2.69       0.0  T
   2    -11.2129657  0.679664E-04  0.116E-01    2.71       1.0  T
   3    -11.2127842  0.181536E-03  0.190E-01    2.67       1.0  T
   4    -11.2130402 -0.255995E-03  0.257E-02    2.70       1.7  T
   5    -11.2130440 -0.382278E-05  0.197E-02    2.70       2.3  T
   6    -11.2130461 -0.211872E-05  0.102E-02    2.70       4.4  T
   7    -11.2130467 -0.578851E-06  0.129E-03    2.70      34.7  T
   8    -11.2130467 -0.208149E-08  0.655E-04    2.70      68.2  T
   9    -11.2130467 -0.552749E-09  0.206E-04    2.70     217.1  T
     SCC iter.                  ...        0 min,  0.001 sec
     gradient                   ...        0 min,  0.001 sec
 * total energy  :   -11.0119072 Eh     change       -0.4496019E-04 Eh
   gradient norm :     0.0033346 Eh/α   predicted    -0.3242179E-04 ( -27.89%)
   displ. norm   :     0.0274979 α      lambda       -0.4416889E-04
   maximum displ.:     0.0164644 α      in ANC's #2, #3, #5, ...

........................................................................
.............................. CYCLE   31 ..............................
........................................................................
   1    -11.2132710 -0.112133E+02  0.104E-01    2.70       0.0  T
   2    -11.2132499  0.210349E-04  0.784E-02    2.70       1.0  T
   3    -11.2132203  0.296640E-04  0.986E-02    2.70       1.0  T
   4    -11.2132702 -0.499795E-04  0.241E-02    2.70       1.9  T
   5    -11.2132758 -0.557416E-05  0.122E-02    2.70       3.7  T
   6    -11.2132768 -0.988156E-06  0.502E-03    2.70       8.9  T
   7    -11.2132769 -0.946213E-07  0.136E-03    2.70      32.8  T
   8    -11.2132769 -0.816861E-08  0.473E-04    2.70      94.5  T
   9    -11.2132769 -0.659959E-09  0.852E-05    2.70     524.7  T
     SCC iter.                  ...        0 min,  0.001 sec
     gradient                   ...        0 min,  0.002 sec
 * total energy  :   -11.0119374 Eh     change       -0.3019058E-04 Eh
   gradient norm :     0.0028028 Eh/α   predicted    -0.2210273E-04 ( -26.79%)
   displ. norm   :     0.0130415 α      lambda       -0.2122835E-04
   maximum displ.:     0.0080230 α      in ANC's #3, #5, #6, ...

........................................................................
.............................. CYCLE   32 ..............................
........................................................................
   1    -11.2136204 -0.112136E+02  0.651E-02    2.71       0.0  T
   2    -11.2136057  0.146990E-04  0.566E-02    2.71       1.0  T
   3    -11.2136106 -0.485898E-05  0.516E-02    2.71       1.0  T
   4    -11.2136244 -0.138861E-04  0.455E-03    2.71       9.8  T
   5    -11.2136244  0.922256E-07  0.519E-03    2.71       8.6  T
   6    -11.2136245 -0.177790E-06  0.269E-03    2.71      16.6  T
   7    -11.2136246 -0.333153E-07  0.117E-03    2.71      38.3  T
   8    -11.2136246 -0.603573E-08  0.195E-04    2.71     229.3  T
   9    -11.2136246 -0.677058E-10  0.516E-05    2.71     866.4  T
     SCC iter.                  ...        0 min,  0.001 sec
     gradient                   ...        0 min,  0.001 sec
 * total energy  :   -11.0119517 Eh     change       -0.1422850E-04 Eh
   gradient norm :     0.0021240 Eh/α   predicted    -0.1061543E-04 ( -25.39%)
   displ. norm   :     0.0090579 α      lambda       -0.1085218E-04
   maximum displ.:     0.0050596 α      in ANC's #2, #6, #5, ...

........................................................................
.............................. CYCLE   33 ..............................
........................................................................
   1    -11.2138115 -0.112138E+02  0.576E-02    2.72       0.0  T
   2    -11.2138021  0.944563E-05  0.479E-02    2.72       1.0  T
   3    -11.2138001  0.202384E-05  0.493E-02    2.72       1.0  T
   4    -11.2138099 -0.980436E-05  0.220E-02    2.72       2.0  T
   5    -11.2138140 -0.412675E-05  0.412E-03    2.72      10.9  T
   6    -11.2138141 -0.572058E-07  0.338E-03    2.72      13.2  T
   7    -11.2138141 -0.667199E-07  0.484E-04    2.72      92.5  T
   8    -11.2138141 -0.811838E-09  0.220E-04    2.72     203.7  T
     SCC iter.                  ...        0 min,  0.001 sec
     gradient                   ...        0 min,  0.001 sec
 * total energy  :   -11.0119599 Eh     change       -0.8236048E-05 Eh
   gradient norm :     0.0015852 Eh/α   predicted    -0.5426727E-05 ( -34.11%)
   displ. norm   :     0.0249527 α      lambda       -0.1388305E-04
   maximum displ.:     0.0203239 α      in ANC's #2, #6, #5, ...

........................................................................
.............................. CYCLE   34 ..............................
........................................................................
   1    -11.2140042 -0.112140E+02  0.147E-01    2.75       0.0  T
   2    -11.2139093  0.949232E-04  0.135E-01    2.77       1.0  T
   3    -11.2138906  0.187021E-04  0.137E-01    2.74       1.0  T
   4    -11.2139881 -0.974768E-04  0.626E-02    2.76       1.0  T
   5    -11.2140218 -0.337587E-04  0.103E-02    2.75       4.3  T
   6    -11.2140223 -0.448229E-06  0.636E-03    2.75       7.0  T
   7    -11.2140225 -0.181750E-06  0.114E-03    2.75      39.4  T
   8    -11.2140225 -0.235003E-08  0.523E-04    2.75      85.6  T
   9    -11.2140225 -0.672390E-09  0.114E-04    2.75     391.3  T
     SCC iter.                  ...        0 min,  0.001 sec
     gradient                   ...        0 min,  0.002 sec
 * total energy  :   -11.0119716 Eh     change       -0.1165701E-04 Eh
   gradient norm :     0.0022177 Eh/α   predicted    -0.6944135E-05 ( -40.43%)
   displ. norm   :     0.0093178 α      lambda       -0.6565448E-05
   maximum displ.:     0.0077992 α      in ANC's #2, #3, #1, ...

........................................................................
.............................. CYCLE   35 ..............................
........................................................................
   1    -11.2139481 -0.112139E+02  0.478E-02    2.75       0.0  T
   2    -11.2139296  0.185369E-04  0.506E-02    2.76       1.0  T
   3    -11.2139361 -0.653032E-05  0.457E-02    2.75       1.0  T
   4    -11.2139500 -0.139222E-04  0.997E-03    2.76       4.5  T
   5    -11.2139507 -0.685160E-06  0.454E-03    2.76       9.8  T
   6    -11.2139508 -0.108792E-06  0.766E-04    2.76      58.4  T
   7    -11.2139508 -0.214167E-08  0.261E-04    2.76     171.1  T
     SCC iter.                  ...        0 min,  0.001 sec
     gradient                   ...        0 min,  0.001 sec
 * total energy  :   -11.0119770 Eh     change       -0.5478693E-05 Eh
   gradient norm :     0.0018700 Eh/α   predicted    -0.3281100E-05 ( -40.11%)
   displ. norm   :     0.0275543 α      lambda       -0.1038737E-04
   maximum displ.:     0.0223958 α      in ANC's #2, #3, #1, ...

........................................................................
.............................. CYCLE   36 ..............................
........................................................................
   1    -11.2135989 -0.112136E+02  0.154E-01    2.75       0.0  T
   2    -11.2133837  0.215165E-03  0.168E-01    2.78       1.0  T
   3    -11.2134699 -0.861636E-04  0.151E-01    2.74       1.0  T
   4    -11.2136162 -0.146300E-03  0.385E-02    2.77       1.2  T
   5    -11.2136270 -0.108183E-04  0.181E-02    2.76       2.5  T
   6    -11.2136285 -0.150925E-05  0.901E-03    2.76       5.0  T
   7    -11.2136290 -0.479689E-06  0.217E-03    2.76      20.6  T
   8    -11.2136290 -0.157773E-07  0.810E-04    2.76      55.2  T
   9    -11.2136290 -0.240760E-08  0.255E-04    2.76     175.1  T
     SCC iter.                  ...        0 min,  0.001 sec
     gradient                   ...        0 min,  0.001 sec
 * total energy  :   -11.0119814 Eh     change       -0.4418692E-05 Eh
   gradient norm :     0.0005318 Eh/α   predicted    -0.5195412E-05 (  17.58%)
   displ. norm   :     0.0102768 α      lambda       -0.1811939E-05
   maximum displ.:     0.0083538 α      in ANC's #2, #1, #3, ...

   *** GEOMETRY OPTIMIZATION CONVERGED AFTER 36 ITERATIONS ***

------------------------------------------------------------------------
 total energy gain   :        -0.2145300 Eh     -134.6196 kcal/mol
 total RMSD          :         1.4951367 a0        0.7912 Å
 total power (kW/mol):       -15.6457905 (step)-4112.9535 (real)
------------------------------------------------------------------------

 ANCopt (total)                0 d,  0 h,  0 min,  0.137 sec
 optimizer setup                ...        0 min,  0.000 sec (  0.038%)
 model hessian                  ...        0 min,  0.000 sec (  0.078%)
 ANC generation                 ...        0 min,  0.000 sec (  0.057%)
 coordinate transformation      ...        0 min,  0.000 sec (  0.050%)
 single point calculation       ...        0 min,  0.134 sec ( 97.896%)
 optimization log               ...        0 min,  0.001 sec (  0.616%)
 hessian update                 ...        0 min,  0.000 sec (  0.042%)
 rational function              ...        0 min,  0.001 sec (  0.512%)

================
 final structure:
================
5
 xtb: 6.2.2 (9d81278992624c895f80dd42a50cac0aa55982e2)
C        -1.57305244796507   -0.54410537845335    0.00610198914124
N        -0.23594796631892   -0.08021374098891   -0.16895956029358
C         1.00830850738126   -0.22470744507266   -0.04023084005652
C        -1.42082884767157    0.74787500513345    0.15098738043391
C         2.22152075457431    0.10115255938146    0.05210103077495

 Bond Distances (Angstroems)
 ---------------------------
C1-N2=1.4261         C1-C4=1.3090         N2-C1=1.4261         N2-C3=1.2592         N2-C4=1.4806         C3-N2=1.2592         
C3-C5=1.2596         C4-C1=1.3090         C4-N2=1.4806         C5-C3=1.2596         
 C  C  Rav=1.2843 sigma=0.0247  Rmin=1.2596  Rmax=1.3090     2
 N  C  Rav=1.3886 sigma=0.0942  Rmin=1.2592  Rmax=1.4806     3

 selected bond angles (degree)
 --------------------
C4-C1-N2= 65.38                C3-N2-C1=151.23                C4-N2-C1= 53.49                C4-N2-C3=146.40                
C5-C3-N2=158.36                N2-C4-C1= 61.12                

 selected dihedral angles (degree)
 ---------------------------------
C3-N2-C1-C4=143.60            C5-C3-N2-C1=202.94            C5-C3-N2-C4=323.43            C1-C4-N2-C3=211.06            
           -------------------------------------------------
          |                Final Singlepoint                |
           -------------------------------------------------

          ...................................................
          :                      SETUP                      :
          :.................................................:
          :  # basis functions                  20          :
          :  # atomic orbitals                  20          :
          :  # shells                           10          :
          :  # electrons                        21          :
          :  max. iterations                   250          :
          :  Hamiltonian                  GFN2-xTB          :
          :  restarted?                      false          :
          :  GBSA solvation                  false          :
          :  PC potential                    false          :
          :  electronic temp.          300.0000000     K    :
          :  accuracy                    1.0000000          :
          :  -> integral cutoff          0.2500000E+02      :
          :  -> integral neglect         0.1000000E-07      :
          :  -> SCF convergence          0.1000000E-05 Eh   :
          :  -> wf. convergence          0.1000000E-03 e    :
          :  Broyden damping             0.4000000          :
          ...................................................

 iter      E             dE          RMSdq      gap      omega  full diag
   1    -11.2136290 -0.112136E+02  0.512E-05    2.76       0.0  T
   2    -11.2136290  0.238067E-10  0.602E-05    2.76     743.3  T
   3    -11.2136290 -0.169642E-10  0.434E-05    2.76    1031.2  T

   *** convergence criteria satisfied after 3 iterations ***

         #    Occupation            Energy/Eh            Energy/eV
      -------------------------------------------------------------
         1        2.0000           -0.7419050             -20.1883
       ...           ...                  ...                  ...
         6        2.0000           -0.5690640             -15.4850
         7        2.0000           -0.4983374             -13.5605
         8        2.0000           -0.4741856             -12.9032
         9        2.0000           -0.4450103             -12.1093
        10        1.0000           -0.4235518             -11.5254
        11        1.0000           -0.4173276             -11.3561
        12        1.0000           -0.3797213             -10.3327 (HOMO)
        13                         -0.2782085              -7.5704 (LUMO)
        14                         -0.2446896              -6.6583
        15                         -0.1828006              -4.9743
        16                         -0.0668477              -1.8190
        17                         -0.0655615              -1.7840
       ...                                ...                  ...
        20                          1.0296056              28.0170
      -------------------------------------------------------------
                  HL-Gap            0.1015128 Eh            2.7623 eV
             Fermi-level           -0.3816233 Eh          -10.3845 eV

 SCC (total)                   0 d,  0 h,  0 min,  0.003 sec
 SCC setup                      ...        0 min,  0.000 sec (  1.335%)
 Dispersion                     ...        0 min,  0.000 sec (  0.286%)
 integral evaluation            ...        0 min,  0.001 sec ( 39.657%)
 zeroth order Hamiltonian       ...        0 min,  0.000 sec (  0.462%)
 iterations                     ...        0 min,  0.000 sec ( 11.061%)
 molecular gradient             ...        0 min,  0.001 sec ( 45.477%)
 printout                       ...        0 min,  0.000 sec (  1.621%)

         :::::::::::::::::::::::::::::::::::::::::::::::::::::
         ::                     SUMMARY                     ::
         :::::::::::::::::::::::::::::::::::::::::::::::::::::
         :: total energy             -11.011981447634 Eh    ::
         :: gradient norm              0.000533406215 Eh/a0 ::
         :: HOMO-LUMO gap              2.762304763546 eV    ::
         ::.................................................::
         :: SCC energy               -11.213628990750 Eh    ::
         :: -> isotropic ES           -0.009602728246 Eh    ::
         :: -> anisotropic ES          0.001201355913 Eh    ::
         :: -> anisotropic XC          0.008797199456 Eh    ::
         :: -> dispersion             -0.002856161873 Eh    ::
         :: repulsion energy           0.201647636820 Eh    ::
         :: add. restraining           0.000000000000 Eh    ::
         :::::::::::::::::::::::::::::::::::::::::::::::::::::

           ------------------------------------------------- 
          |                Numerical Hessian                |
           ------------------------------------------------- 
step length          :   0.00500
SCC accuracy         :   0.30000
Hessian scale factor :   1.00000
frozen atoms in %    :   0.00000    0
RMS gradient         :   0.00053
estimated CPU  time      0.00 min
estimated wall time      0.00 min

writing file <hessian>.

 projected vibrational frequencies (cm-1)
eigval :       -0.00    -0.00     0.00     0.00     0.00     0.00
eigval :      130.79   187.24   325.90   350.70   464.74   769.51
eigval :     1366.78  1617.82  1818.58
           -------------------------------------------------
          |                Property Printout                |
           -------------------------------------------------

    * Orbital Energies and Occupations

         #    Occupation            Energy/Eh            Energy/eV
      -------------------------------------------------------------
         1        2.0000           -0.7419047             -20.1883
         2        2.0000           -0.6963384             -18.9483
         3        2.0000           -0.6470574             -17.6073
         4        2.0000           -0.6104082             -16.6101
         5        2.0000           -0.5860629             -15.9476
         6        2.0000           -0.5690637             -15.4850
         7        2.0000           -0.4983372             -13.5604
         8        2.0000           -0.4741855             -12.9032
         9        2.0000           -0.4450105             -12.1094
        10        1.0000           -0.4235517             -11.5254
        11        1.0000           -0.4173275             -11.3561
        12        1.0000           -0.3797213             -10.3327 (HOMO)
        13                         -0.2782081              -7.5704 (LUMO)
        14                         -0.2446898              -6.6583
        15                         -0.1828008              -4.9743
        16                         -0.0668474              -1.8190
        17                         -0.0655612              -1.7840
        18                          0.3857620              10.4971
        19                          0.5412381              14.7278
        20                          1.0296055              28.0170
      -------------------------------------------------------------
                  HL-Gap            0.1015133 Eh            2.7623 eV
             Fermi-level           -0.3816233 Eh          -10.3845 eV

     #   Z        covCN         q      C6AA      α(0)
     1   6 C      1.890     0.002    31.057     9.001
     2   7 N      2.726     0.070    20.029     6.647
Molecule has no symmetry elements
It seems to be the C1 point group
     3   6 C      1.892     0.077    29.180     8.724
     4   6 C      1.887    -0.018    31.612     9.081
     5   6 C      0.983    -0.131    40.159    10.645

 Mol. C6AA /au·bohr⁶  :        749.956770
 Mol. C8AA /au·bohr⁸  :      20805.470323
 Mol. α(0) /au        :         44.097542


Wiberg/Mayer (AO) data.
largest (>0.10) Wiberg bond orders for each atom
          total WBO             WBO to atom ...
     1  C   2.770        C    4 1.766    N    2 0.889
     2  N   3.236        C    3 1.489    C    1 0.889    C    4 0.800
     3  C   3.725        C    5 2.083    N    2 1.489
     4  C   2.726        C    1 1.766    N    2 0.800
     5  C   2.261        C    3 2.083

MOs/occ written to file <molden.input>


molecular dipole:
                 x           y           z       tot (Debye)
 q only:       -0.391      -0.097      -0.046
   full:       -0.400      -0.301      -0.090       1.294
molecular quadrupole (traceless):
                xx          xy          yy          xz          yz          zz
 q only:       -2.114      -0.128       1.036      -0.062      -0.006       1.078
  q+dip:       -4.879      -0.344       2.744       0.125      -0.006       2.136
   full:       -6.458      -1.136       2.675      -0.033      -0.274       3.782

           -------------------------------------------------
          |                Geometry Summary                 |
           -------------------------------------------------

      molecular mass/u    :       62.0496468
   center of mass at/Å    :       -0.0075898      -0.0025800      -0.0054349
  moments of inertia/u·Å² :        0.1176062E+02   0.1267395E+03   0.1375927E+03
rotational constants/cm⁻¹ :        0.1433396E+01   0.1330101E+00   0.1225184E+00

 * 3 selected distances

     #   Z        #   Z                                     value/Å
     2   7 N      3   6 C                                 1.2592155 (min)
     1   6 C      4   6 C                                 1.3089603 (max)
     3   6 C      5   6 C                                 1.2596007

 * 2 distinct bonds (by element types)

   Z      Z             #   av. dist./Å        max./Å        min./Å
   6 C    6 C           2     1.2842805     1.3089603     1.2596007
   6 C    7 N           1     1.2592155     1.2592155     1.2592155

           -------------------------------------------------
          |               Frequency Printout                |
           -------------------------------------------------
 projected vibrational frequencies (cm-1)
eigval :       -0.00    -0.00     0.00     0.00     0.00     0.00
eigval :      130.79   187.24   325.90   350.70   464.74   769.51
eigval :     1366.78  1617.82  1818.58
 reduced masses (amu)
   1: 12.21   2: 12.18   3: 12.31   4: 12.25   5: 12.39   6: 12.18   7: 13.22   8: 12.59
   9: 12.15  10: 12.27  11: 12.75  12: 12.16  13: 13.09  14: 12.03  15: 12.37
 IR intensities (amu)
   1:  0.07   2:  0.06   3:  0.16   4:  0.06   5:  0.05   6:  0.07   7:  0.18   8:  0.48
   9:  1.06  10:  0.33  11:  0.44  12:  0.79  13:  0.78  14:  2.70  15:  0.67
 Raman intensities (amu)
   1:  0.00   2:  0.00   3:  0.00   4:  0.00   5:  0.00   6:  0.00   7:  0.00   8:  0.00
   9:  0.00  10:  0.00  11:  0.00  12:  0.00  13:  0.00  14:  0.00  15:  0.00
 output can be read by thermo (or use thermo option).
 writing <g98.out> molden fake output.
 recommended (thermochemical) frequency scaling factor: 1.0
           -------------------------------------------------
          |             Thermodynamic Functions             |
           -------------------------------------------------

c1  symmetry found (for desy threshold:  0.10E+00) used in thermo

          ...................................................
          :                      SETUP                      :
          :.................................................:
          :  # frequencies                           9      :
          :  # imaginary freq.                       0      :
          :  linear?                             false      :
          :  only rotor calc.                    false      :
          :  symmetry                               c1      :
          :  rotational number                       1      :
          :  scaling factor                  1.0000000      :
          :  rotor cutoff                   50.0000000 cm⁻¹ :
          :  imag. cutoff                  -20.0000000 cm⁻¹ :
          :.................................................:

    mode    ω/cm⁻¹     T·S(HO)/kcal·mol⁻¹    T·S(FR)/kcal·mol⁻¹   T·S(vib)
   ------------------------------------------------------------------------
       1    130.79    -0.00000 ( 97.91%)     0.00786 (  2.09%)     0.00016
       2    187.24    -0.00000 ( 99.49%)     0.01143 (  0.51%)     0.00006
   ------------------------------------------------------------------------

   temp. (K)  partition function   enthalpy   heat capacity  entropy
                                   cal/mol     cal/K/mol   cal/K/mol   J/K/mol
 298.15  VIB   6.38                 1480.725      9.200      8.643
         ROT  0.346E+05              888.752      2.981     23.751
         INT  0.221E+06             2369.478     12.181     32.393
         TR   0.473E+27             1481.254      4.968     38.278
         TOT                        3850.7316    17.1487    70.6716   295.6899

   temp. (K)  partition function   enthalpy   heat capacity  entropy
                                   cal/mol     cal/K/mol   cal/K/mol   J/K/mol
 120.00  VIB   1.47                  201.480      4.381      2.456
         ROT  0.883E+04              357.707      2.981     21.038
         INT  0.130E+05              559.186      7.362     23.494
         TR   0.121E+27              596.178      4.968     33.759
         TOT                        1155.3645    12.3302    57.2523   239.5435

   temp. (K)  partition function   enthalpy   heat capacity  entropy
                                   cal/mol     cal/K/mol   cal/K/mol   J/K/mol
 100.00  VIB   1.29                  122.854      3.467      1.744
         ROT  0.672E+04              298.089      2.981     20.494
         INT  0.865E+04              420.943      6.448     22.238
         TR   0.919E+26              496.815      4.968     32.853
         TOT                         917.7578    11.4165    55.0915   230.5028

   temp. (K)  partition function   enthalpy   heat capacity  entropy
                                   cal/mol     cal/K/mol   cal/K/mol   J/K/mol
  80.00  VIB   1.15                   63.249      2.484      1.085
         ROT  0.481E+04              238.471      2.981     19.829
         INT  0.553E+04              301.720      5.465     20.914
         TR   0.657E+26              397.452      4.968     31.745
         TOT                         699.1717    10.4335    52.6589   220.3250

   temp. (K)  partition function   enthalpy   heat capacity  entropy
                                   cal/mol     cal/K/mol   cal/K/mol   J/K/mol
  60.00  VIB   1.06                   23.677      1.472      0.522
         ROT  0.312E+04              178.853      2.981     18.972
         INT  0.330E+04              202.531      4.453     19.494
         TR   0.427E+26              298.089      4.968     30.317
         TOT                         500.6198     9.4208    49.8105   208.4072

   temp. (K)  partition function   enthalpy   heat capacity  entropy
                                   cal/mol     cal/K/mol   cal/K/mol   J/K/mol
  40.00  VIB   1.01                    4.065      0.516      0.133
         ROT  0.170E+04              119.236      2.981     17.763
         INT  0.172E+04              123.301      3.497     17.896
         TR   0.232E+26              198.726      4.968     28.303
         TOT                         322.0265     8.4653    46.1992   193.2973

   temp. (K)  partition function   enthalpy   heat capacity  entropy
                                   cal/mol     cal/K/mol   cal/K/mol   J/K/mol
  20.00  VIB   1.00                    0.031      0.015     -0.004
         ROT   601.                   59.618      2.981     15.697
         INT   601.                   59.649      2.996     15.693
         TR   0.822E+25               99.363      4.968     24.861
         TOT                         159.0122     7.9640    40.5542   169.6788

   temp. (K)  partition function   enthalpy   heat capacity  entropy
                                   cal/mol     cal/K/mol   cal/K/mol   J/K/mol
  10.00  VIB   1.00                    0.000      0.000     -0.024
         ROT   212.                   29.809      2.981     13.630
         INT   212.                   29.809      2.981     13.606
         TR   0.290E+25               49.681      4.968     21.419
         TOT                          79.4904     7.9490    35.0257   146.5474

       T/K    H(0)-H(T)+PV         H(T)/Eh          T*S/Eh         G(T)/Eh
   ------------------------------------------------------------------------
    298.15    0.613653E-02    0.221567E-01    0.335783E-01   -0.114216E-01
    120.00    0.184119E-02    0.178614E-01    0.109485E-01    0.691293E-02
    100.00    0.146254E-02    0.174828E-01    0.877939E-02    0.870337E-02
     80.00    0.111420E-02    0.171344E-01    0.671339E-02    0.104210E-01
     60.00    0.797788E-03    0.168180E-01    0.476269E-02    0.120553E-01
     40.00    0.513182E-03    0.165334E-01    0.294492E-02    0.135885E-01
     20.00    0.253402E-03    0.162736E-01    0.129255E-02    0.149811E-01
     10.00    0.126676E-03    0.161469E-01    0.558170E-03    0.155887E-01 (used)
   ------------------------------------------------------------------------

         :::::::::::::::::::::::::::::::::::::::::::::::::::::
         ::                  THERMODYNAMIC                  ::
         :::::::::::::::::::::::::::::::::::::::::::::::::::::
         :: total free energy         -10.996392728214 Eh   ::
         ::.................................................::
         :: total energy              -11.011981447572 Eh   ::
         :: zero point energy           0.016020213087 Eh   ::
         :: G(RRHO) w/o ZPVE           -0.000431493729 Eh   ::
         :: G(RRHO) contrib.            0.015588719358 Eh   ::
         :::::::::::::::::::::::::::::::::::::::::::::::::::::

optimized geometry written to: xtbopt.xyz


           -------------------------------------------------
          | TOTAL ENERGY              -11.011981447572 Eh   |
          | TOTAL ENTHALPY            -10.995834558466 Eh   |
          | TOTAL FREE ENERGY         -10.996392728214 Eh   |
          | GRADIENT NORM               0.000534025384 Eh/α |
          | HOMO-LUMO GAP               2.762317247449 eV   |
           -------------------------------------------------

------------------------------------------------------------------------
 * finished run on 2020/05/12 at 11:43:58.595     
------------------------------------------------------------------------
 total:
 * wall-time:     0 d,  0 h,  0 min,  0.257 sec
 *  cpu-time:     0 d,  0 h,  0 min,  0.257 sec
 * ratio c/w:     0.997 speedup
 SCF:
 * wall-time:     0 d,  0 h,  0 min,  0.004 sec
 *  cpu-time:     0 d,  0 h,  0 min,  0.004 sec
 * ratio c/w:     1.000 speedup
 ANC optimizer:
 * wall-time:     0 d,  0 h,  0 min,  0.140 sec
 *  cpu-time:     0 d,  0 h,  0 min,  0.140 sec
 * ratio c/w:     0.999 speedup
 numerical hessian:
 * wall-time:     0 d,  0 h,  0 min,  0.098 sec
 *  cpu-time:     0 d,  0 h,  0 min,  0.098 sec
 * ratio c/w:     0.995 speedup

