      -----------------------------------------------------------      
     |                   =====================                   |     
     |                           x T B                           |     
     |                   =====================                   |     
     |                         S. Grimme                         |     
     |          Mulliken Center for Theoretical Chemistry        |     
     |                    University of Bonn                     |     
      -----------------------------------------------------------      

   * xtb version 6.2.2 (9d81278992624c895f80dd42a50cac0aa55982e2) compiled by '@Darwin' on 04/03/2020

   xtb is free software: you can redistribute it and/or modify it under
   the terms of the GNU Lesser General Public License as published by
   the Free Software Foundation, either version 3 of the License, or
   (at your option) any later version.
   
   xtb is distributed in the hope that it will be useful,
   but WITHOUT ANY WARRANTY; without even the implied warranty of
   MERCHANTABILITY or FITNESS FOR A PARTICULAR PURPOSE.  See the
   GNU Lesser General Public License for more details.
   
   Cite this work as:
   * S. Grimme, C. Bannwarth, P. Shushkov, J. Chem. Theory Comput., 2017,
     13, 1989-2009. DOI: 10.1021/acs.jctc.7b00118
   * C. Bannwarth, S. Ehlert and S. Grimme., J. Chem. Theory Comput., 2019,
     15, 1652-1671. DOI: 10.1021/acs.jctc.8b01176
   * P. Pracht, E. Caldeweyher, S. Ehlert, S. Grimme, ChemRxiv, 2019, preprint.
     DOI: 10.26434/chemrxiv.8326202.v1
   
   for DFT-D4:
   * E. Caldeweyher, C. Bannwarth and S. Grimme, J. Chem. Phys., 2017,
     147, 034112. DOI: 10.1063/1.4993215
   * E. Caldeweyher, S. Ehlert, A. Hansen, H. Neugebauer, S. Spicher,
     C. Bannwarth and S. Grimme, J. Chem. Phys., 2019, 150, 154122.
     DOI: 10.1063/1.5090222
   
   for sTDA-xTB:
   * S. Grimme and C. Bannwarth, J. Chem. Phys., 2016, 145, 054103.
     DOI: 10.1063/1.4959605
   
   in the mass-spec context:
   * V. Asgeirsson, C. Bauer and S. Grimme, Chem. Sci., 2017, 8, 4879.
     DOI: 10.1039/c7sc00601b
   
   for metadynamics refer to:
   * S. Grimme, J. Chem. Theory Comput., 2019, 155, 2847-2862
     DOI: 10.1021/acs.jctc.9b00143
   
   with help from (in alphabetical order)
   C. Bannwarth, F. Bohle, G. Brandenburg, E. Caldeweyher, M. Checinski,
   S. Dohm, S. Ehlert, S. Ehrlich, F. März, H. Neugebauer, J. Pisarek,
   P. Pracht, P. Shushkov, and S. Spicher.
   
 * started run on 2020/05/12 at 11:44:08.646     

           -------------------------------------------------
          |                Calculation Setup                |
           -------------------------------------------------

          program call               : xtb --input C4N1_24_S_3.input C4N1_24_S_3.xyz --ohess --molden --namespace C4N1_24_S_3 output.out
          calculation namespace      : C4N1_24_S_3
          coordinate file            : C4N1_24_S_3.xyz
          number of atoms            :                     5
          number of electrons        :                    21
          charge                     :                     0
          spin                       :                   1.5
          first test random number   :      0.65916556902008

   ID    Z sym.   atoms
    1    7 N      1
    2    6 C      2-5

           -------------------------------------------------
          |                 G F N 2 - x T B                 |
           -------------------------------------------------

        Reference                      10.1021/acs.jctc.8b01176
      * Hamiltonian:
        H0-scaling (s, p, d)           1.850000    2.230000    2.230000
        zeta-weighting                 0.500000
      * Dispersion:
        s8                             2.700000
        a1                             0.520000
        a2                             5.000000
        s9                             5.000000
      * Repulsion:
        kExp                           1.500000    1.000000
        rExp                           1.000000
      * Coulomb:
        alpha                          2.000000
        third order                    shell-resolved
        anisotropic                    true
        a3                             3.000000
        a5                             4.000000
        cn-shift                       1.200000
        cn-exp                         4.000000
        max-rad                        5.000000


          ...................................................
          :                      SETUP                      :
          :.................................................:
          :  # basis functions                  20          :
          :  # atomic orbitals                  20          :
          :  # shells                           10          :
          :  # electrons                        21          :
          :  max. iterations                   250          :
          :  Hamiltonian                  GFN2-xTB          :
          :  restarted?                      false          :
          :  GBSA solvation                  false          :
          :  PC potential                    false          :
          :  electronic temp.          300.0000000     K    :
          :  accuracy                    1.0000000          :
          :  -> integral cutoff          0.2500000E+02      :
          :  -> integral neglect         0.1000000E-07      :
          :  -> SCF convergence          0.1000000E-05 Eh   :
          :  -> wf. convergence          0.1000000E-03 e    :
          :  Broyden damping             0.4000000          :
          ...................................................

 iter      E             dE          RMSdq      gap      omega  full diag
   1    -10.6154922 -0.106155E+02  0.106E+01    0.20       0.0  T
   2     -9.7064752  0.909017E+00  0.140E+01    1.68       1.0  T
   3    -10.9469123 -0.124044E+01  0.588E+00    0.37       1.0  T
   4    -10.8123851  0.134527E+00  0.501E+00    0.20       1.0  T
   5    -10.9691711 -0.156786E+00  0.143E+00    0.24       1.0  T
   6    -10.9768925 -0.772135E-02  0.111E+00    0.42       1.0  T
   7    -10.9805709 -0.367838E-02  0.624E-01    0.40       1.0  T
   8    -10.9816889 -0.111797E-02  0.227E-01    0.34       1.0  T
   9    -10.9819168 -0.227934E-03  0.129E-01    0.37       1.0  T
  10    -10.9820083 -0.915010E-04  0.447E-02    0.36       1.0  T
  11    -10.9820177 -0.945330E-05  0.324E-02    0.36       1.4  T
  12    -10.9820257 -0.797210E-05  0.343E-03    0.36      13.0  T
  13    -10.9820257 -0.207647E-08  0.147E-03    0.36      30.4  T
  14    -10.9820257 -0.806458E-08  0.631E-04    0.36      70.9  T
  15    -10.9820257 -0.266204E-08  0.153E-04    0.36     292.6  T

   *** convergence criteria satisfied after 15 iterations ***

         #    Occupation            Energy/Eh            Energy/eV
      -------------------------------------------------------------
         1        2.0000           -0.7629787             -20.7617
       ...           ...                  ...                  ...
         6        2.0000           -0.5480954             -14.9144
         7        2.0000           -0.5317318             -14.4692
         8        2.0000           -0.5127479             -13.9526
         9        2.0000           -0.4900147             -13.3340
        10        1.0000           -0.4570613             -12.4373
        11        1.0000           -0.4417819             -12.0215
        12        0.9991           -0.4264469             -11.6042 (HOMO)
        13        0.0009           -0.4132027             -11.2438 (LUMO)
        14                         -0.3363855              -9.1535
        15                         -0.2809711              -7.6456
        16                         -0.0245412              -0.6678
        17                          0.0280284               0.7627
       ...                                ...                  ...
        20                          0.1683412               4.5808
      -------------------------------------------------------------
                  HL-Gap            0.0132443 Eh            0.3604 eV
             Fermi-level           -0.4466814 Eh          -12.1548 eV

 SCC (total)                   0 d,  0 h,  0 min,  0.005 sec
 SCC setup                      ...        0 min,  0.000 sec (  1.643%)
 Dispersion                     ...        0 min,  0.000 sec (  0.402%)
 integral evaluation            ...        0 min,  0.001 sec ( 27.178%)
 zeroth order Hamiltonian       ...        0 min,  0.000 sec (  0.402%)
 iterations                     ...        0 min,  0.002 sec ( 37.863%)
 molecular gradient             ...        0 min,  0.001 sec ( 30.830%)
 printout                       ...        0 min,  0.000 sec (  1.517%)

         :::::::::::::::::::::::::::::::::::::::::::::::::::::
         ::                     SUMMARY                     ::
         :::::::::::::::::::::::::::::::::::::::::::::::::::::
         :: total energy             -10.896066267605 Eh    ::
         :: gradient norm              0.190937715226 Eh/a0 ::
         :: HOMO-LUMO gap              0.360394637443 eV    ::
         ::.................................................::
         :: SCC energy               -10.982025725757 Eh    ::
         :: -> isotropic ES           -0.007898345160 Eh    ::
         :: -> anisotropic ES          0.000230543239 Eh    ::
         :: -> anisotropic XC          0.010179576910 Eh    ::
         :: -> dispersion             -0.002725134490 Eh    ::
         :: repulsion energy           0.085959369013 Eh    ::
         :: add. restraining           0.000000000000 Eh    ::
         :::::::::::::::::::::::::::::::::::::::::::::::::::::

      ----------------------------------------------------------- 
     |                   =====================                   |
     |                        A N C O P T                        |
     |                   =====================                   |
     |               Approximate Normal Coordinate               |
     |                Rational Function Optimizer                |
      ----------------------------------------------------------- 

          ...................................................
          :                      SETUP                      :
          :.................................................:
          :   optimization level            normal          :
          :   max. optcycles                   200          :
          :   ANC micro-cycles                  20          :
          :   degrees of freedom                 9          :
          :.................................................:
          :   RF solver                   davidson          :
          :   write xtbopt.log                true          :
          :   linear?                        false          :
          :   energy convergence         0.5000000E-05 Eh   :
          :   grad. convergence          0.1000000E-02 Eh/α :
          :   maximium RF displ.         1.0000000          :
          :   Hlow (freq-cutoff)         0.1000000E-01      :
          :   Hmax (freq-cutoff)         5.0000000          :
          :   S6 in model hess.         20.0000000          :
          ...................................................

generating ANC from model Hessian ...
Using Lindh-Hessian (1995)
 Shifting diagonal of input Hessian by    0.0000000000000000     
 Lowest  eigenvalues of input Hessian
   -0.000000   -0.000000    0.000000    0.000000    0.000000    0.000000
    0.076150    0.098649    0.136552    0.523633    0.557798    0.881704
    1.002249    1.241102    1.408039
 Highest eigenvalues
    0.523633    0.557798    0.881704    1.002249    1.241102    1.408039


........................................................................
.............................. CYCLE    1 ..............................
........................................................................
   1    -10.9820257 -0.109820E+02  0.466E-05    0.36       0.0  T
   2    -10.9820257  0.121513E-09  0.129E-04    0.36     346.1  T
   3    -10.9820257 -0.134051E-09  0.139E-05    0.36    3220.3  T
     SCC iter.                  ...        0 min,  0.001 sec
     gradient                   ...        0 min,  0.002 sec
 * total energy  :   -10.8960663 Eh     change       -0.5138379E-09 Eh
   gradient norm :     0.1909375 Eh/α   predicted     0.0000000E+00 (-100.00%)
   displ. norm   :     0.2725556 α      lambda       -0.4622437E-01
   maximum displ.:     0.1716492 α      in ANC's #5, #3, #7, ...

........................................................................
.............................. CYCLE    2 ..............................
........................................................................
   1    -11.0463088 -0.110463E+02  0.156E+00    0.26       0.0  T
   2    -11.0462869  0.218748E-04  0.981E-01    0.48       1.0  T
   3    -11.0453132  0.973710E-03  0.849E-01    0.30       1.0  T
   4    -11.0430365  0.227671E-02  0.782E-01    0.33       1.0  T
   5    -11.0482004 -0.516394E-02  0.197E-01    0.42       1.0  T
   6    -11.0484401 -0.239721E-03  0.618E-02    0.39       1.0  T
   7    -11.0484500 -0.987309E-05  0.216E-02    0.39       2.1  T
   8    -11.0484516 -0.159816E-05  0.443E-03    0.39      10.1  T
   9    -11.0484514  0.224404E-06  0.518E-03    0.39       8.6  T
  10    -11.0484516 -0.261940E-06  0.564E-04    0.39      79.3  T
  11    -11.0484516 -0.658499E-09  0.117E-04    0.39     381.8  T
     SCC iter.                  ...        0 min,  0.001 sec
     gradient                   ...        0 min,  0.001 sec
 * total energy  :   -10.9347058 Eh     change       -0.3863954E-01 Eh
   gradient norm :     0.1239625 Eh/α   predicted    -0.2482911E-01 ( -35.74%)
   displ. norm   :     0.5141382 α      lambda       -0.5286656E-01
   maximum displ.:     0.3277103 α      in ANC's #3, #5, #7, ...

........................................................................
.............................. CYCLE    3 ..............................
........................................................................
   1    -11.1397260 -0.111397E+02  0.428E+00    1.03       0.0  T
   2    -10.9265837  0.213142E+00  0.524E+00    0.46       1.0  T
   3    -11.0880082 -0.161424E+00  0.346E+00    1.40       1.0  T
   4    -11.1276040 -0.395959E-01  0.218E+00    1.22       1.0  T
   5    -11.1420835 -0.144795E-01  0.132E+00    1.00       1.0  T
   6    -11.1494168 -0.733328E-02  0.910E-01    1.01       1.0  T
   7    -11.1478923  0.152444E-02  0.102E+00    1.02       1.0  T
   8    -11.1548174 -0.692507E-02  0.316E-01    0.98       1.0  T
   9    -11.1553783 -0.560849E-03  0.117E-01    0.99       1.0  T
  10    -11.1552931  0.851313E-04  0.166E-01    0.99       1.0  T
  11    -11.1553906 -0.974860E-04  0.102E-01    0.98       1.0  T
  12    -11.1554421 -0.514759E-04  0.440E-02    0.98       1.0  T
  13    -11.1554519 -0.985372E-05  0.582E-03    0.99       7.7  T
  14    -11.1554519  0.685650E-07  0.437E-03    0.99      10.2  T
  15    -11.1554520 -0.122446E-06  0.568E-04    0.99      78.8  T
  16    -11.1554520 -0.342840E-09  0.376E-04    0.99     118.9  T
     SCC iter.                  ...        0 min,  0.001 sec
     gradient                   ...        0 min,  0.002 sec
 * total energy  :   -10.9710463 Eh     change       -0.3634046E-01 Eh
   gradient norm :     0.1167316 Eh/α   predicted    -0.3342061E-01 (  -8.03%)
   displ. norm   :     0.6590027 α      lambda       -0.4455957E-01
   maximum displ.:     0.5815125 α      in ANC's #3, #5, #4, ...

........................................................................
.............................. CYCLE    4 ..............................
........................................................................
   1    -11.2054244 -0.112054E+02  0.291E+00    2.70       0.0  T
   2    -11.2049106  0.513836E-03  0.171E+00    2.73       1.0  T
   3    -11.1957337  0.917690E-02  0.151E+00    2.79       1.0  T
   4    -11.2085799 -0.128462E-01  0.258E-01    2.72       1.0  T
   5    -11.2088217 -0.241808E-03  0.973E-02    2.76       1.0  T
   6    -11.2088289 -0.718889E-05  0.397E-02    2.75       1.1  T
   7    -11.2088175  0.113694E-04  0.532E-02    2.76       1.0  T
   8    -11.2088402 -0.226478E-04  0.740E-03    2.76       6.0  T
   9    -11.2088403 -0.144216E-06  0.434E-03    2.76      10.3  T
  10    -11.2088403 -0.365778E-07  0.644E-04    2.76      69.5  T
  11    -11.2088403 -0.112811E-08  0.110E-04    2.76     407.2  T
     SCC iter.                  ...        0 min,  0.001 sec
     gradient                   ...        0 min,  0.001 sec
 * total energy  :   -11.0010871 Eh     change       -0.3004084E-01 Eh
   gradient norm :     0.1348304 Eh/α   predicted    -0.3195554E-01 (   6.37%)
   displ. norm   :     0.5666188 α      lambda       -0.3889654E-01
   maximum displ.:     0.3862065 α      in ANC's #1, #3, #4, ...

........................................................................
.............................. CYCLE    5 ..............................
........................................................................
   1    -11.1593154 -0.111593E+02  0.223E+00    1.98       0.0  T
   2    -11.1540686  0.524675E-02  0.178E+00    1.98       1.0  T
   3    -11.1574165 -0.334788E-02  0.126E+00    1.82       1.0  T
   4    -11.1603435 -0.292700E-02  0.906E-01    2.13       1.0  T
   5    -11.1663650 -0.602152E-02  0.877E-02    1.96       1.0  T
   6    -11.1663596  0.541133E-05  0.629E-02    1.96       1.0  T
   7    -11.1663700 -0.103366E-04  0.191E-02    1.95       2.3  T
   8    -11.1663714 -0.141238E-05  0.127E-02    1.95       3.5  T
   9    -11.1663723 -0.936175E-06  0.646E-03    1.95       6.9  T
  10    -11.1663724 -0.128565E-06  0.832E-04    1.95      53.7  T
  11    -11.1663724 -0.289937E-08  0.290E-04    1.95     154.2  T
     SCC iter.                  ...        0 min,  0.001 sec
     gradient                   ...        0 min,  0.001 sec
 * total energy  :   -11.0180682 Eh     change       -0.1698110E-01 Eh
   gradient norm :     0.0795293 Eh/α   predicted    -0.2569227E-01 (  51.30%)
   displ. norm   :     0.1378603 α      lambda       -0.7115993E-02
   maximum displ.:     0.0978235 α      in ANC's #3, #1, #7, ...

........................................................................
.............................. CYCLE    6 ..............................
........................................................................
   1    -11.1919018 -0.111919E+02  0.697E-01    2.04       0.0  T
   2    -11.1916857  0.216057E-03  0.448E-01    2.09       1.0  T
   3    -11.1894152  0.227053E-02  0.560E-01    1.97       1.0  T
   4    -11.1920524 -0.263718E-02  0.104E-01    2.05       1.0  T
   5    -11.1920950 -0.426428E-04  0.207E-02    2.05       2.2  T
   6    -11.1920957 -0.638659E-06  0.125E-02    2.05       3.6  T
   7    -11.1920958 -0.121644E-06  0.493E-03    2.05       9.1  T
   8    -11.1920958 -0.316874E-07  0.386E-03    2.05      11.6  T
   9    -11.1920959 -0.121276E-06  0.623E-04    2.05      71.7  T
  10    -11.1920959 -0.743961E-09  0.667E-05    2.05     670.8  T
     SCC iter.                  ...        0 min,  0.001 sec
     gradient                   ...        0 min,  0.001 sec
 * total energy  :   -11.0226559 Eh     change       -0.4587726E-02 Eh
   gradient norm :     0.0339850 Eh/α   predicted    -0.3625617E-02 ( -20.97%)
   displ. norm   :     0.1470542 α      lambda       -0.2964269E-02
   maximum displ.:     0.1186702 α      in ANC's #1, #5, #7, ...

........................................................................
.............................. CYCLE    7 ..............................
........................................................................
   1    -11.2024008 -0.112024E+02  0.690E-01    1.98       0.0  T
   2    -11.2021475  0.253281E-03  0.465E-01    1.95       1.0  T
   3    -11.2010911  0.105641E-02  0.482E-01    1.93       1.0  T
   4    -11.2025547 -0.146359E-02  0.143E-01    1.98       1.0  T
   5    -11.2026975 -0.142886E-03  0.193E-02    1.95       2.3  T
   6    -11.2026984 -0.829893E-06  0.101E-02    1.95       4.4  T
   7    -11.2026982  0.162131E-06  0.499E-03    1.95       9.0  T
   8    -11.2026982 -0.122927E-07  0.466E-03    1.95       9.6  T
   9    -11.2026984 -0.180809E-06  0.566E-04    1.95      79.0  T
  10    -11.2026984 -0.691028E-09  0.595E-05    1.95     751.7  T
     SCC iter.                  ...        0 min,  0.001 sec
     gradient                   ...        0 min,  0.001 sec
 * total energy  :   -11.0246578 Eh     change       -0.2001923E-02 Eh
   gradient norm :     0.0164605 Eh/α   predicted    -0.1514187E-02 ( -24.36%)
   displ. norm   :     0.1301122 α      lambda       -0.1270356E-02
   maximum displ.:     0.1109238 α      in ANC's #1, #4, #7, ...

........................................................................
.............................. CYCLE    8 ..............................
........................................................................
   1    -11.2007144 -0.112007E+02  0.590E-01    1.86       0.0  T
   2    -11.2004731  0.241300E-03  0.393E-01    1.86       1.0  T
   3    -11.1995170  0.956137E-03  0.438E-01    1.83       1.0  T
   4    -11.2008357 -0.131868E-02  0.735E-02    1.86       1.0  T
   5    -11.2008747 -0.389765E-04  0.122E-02    1.85       3.7  T
   6    -11.2008746  0.340005E-07  0.648E-03    1.85       6.9  T
   7    -11.2008745  0.155536E-06  0.578E-03    1.85       7.7  T
   8    -11.2008747 -0.240414E-06  0.225E-03    1.85      19.8  T
   9    -11.2008748 -0.430516E-07  0.485E-04    1.85      92.3  T
  10    -11.2008748 -0.512875E-09  0.502E-05    1.85     890.2  T
     SCC iter.                  ...        0 min,  0.001 sec
     gradient                   ...        0 min,  0.001 sec
 * total energy  :   -11.0254350 Eh     change       -0.7771848E-03 Eh
   gradient norm :     0.0129825 Eh/α   predicted    -0.6459305E-03 ( -16.89%)
   displ. norm   :     0.0619520 α      lambda       -0.3941851E-03
   maximum displ.:     0.0376342 α      in ANC's #1, #7, #3, ...

........................................................................
.............................. CYCLE    9 ..............................
........................................................................
   1    -11.2031896 -0.112032E+02  0.257E-01    1.83       0.0  T
   2    -11.2031690  0.205426E-04  0.159E-01    1.82       1.0  T
   3    -11.2030173  0.151738E-03  0.173E-01    1.82       1.0  T
   4    -11.2032032 -0.185923E-03  0.451E-02    1.83       1.0  T
   5    -11.2032185 -0.152562E-04  0.713E-03    1.82       6.3  T
   6    -11.2032185 -0.165833E-07  0.328E-03    1.82      13.6  T
   7    -11.2032185  0.161826E-07  0.270E-03    1.82      16.5  T
   8    -11.2032185 -0.552698E-07  0.830E-04    1.82      53.9  T
   9    -11.2032185 -0.470781E-08  0.168E-04    1.82     266.9  T
     SCC iter.                  ...        0 min,  0.001 sec
     gradient                   ...        0 min,  0.001 sec
 * total energy  :   -11.0256947 Eh     change       -0.2597131E-03 Eh
   gradient norm :     0.0097408 Eh/α   predicted    -0.1978504E-03 ( -23.82%)
   displ. norm   :     0.0859155 α      lambda       -0.3223656E-03
   maximum displ.:     0.0641801 α      in ANC's #1, #3, #7, ...

........................................................................
.............................. CYCLE   10 ..............................
........................................................................
   1    -11.2019411 -0.112019E+02  0.339E-01    1.73       0.0  T
   2    -11.2018953  0.458682E-04  0.224E-01    1.71       1.0  T
   3    -11.2016099  0.285347E-03  0.229E-01    1.71       1.0  T
   4    -11.2019768 -0.366892E-03  0.644E-02    1.73       1.0  T
   5    -11.2020032 -0.264006E-04  0.963E-03    1.71       4.6  T
   6    -11.2020032  0.233940E-07  0.655E-03    1.71       6.8  T
   7    -11.2020033 -0.655173E-07  0.349E-03    1.71      12.8  T
   8    -11.2020034 -0.935423E-07  0.104E-03    1.71      43.1  T
   9    -11.2020034 -0.823133E-08  0.197E-04    1.71     226.5  T
  10    -11.2020034 -0.743405E-11  0.122E-05    1.71    3663.1  T
     SCC iter.                  ...        0 min,  0.001 sec
     gradient                   ...        0 min,  0.001 sec
 * total energy  :   -11.0258751 Eh     change       -0.1803666E-03 Eh
   gradient norm :     0.0103718 Eh/α   predicted    -0.1623735E-03 (  -9.98%)
   displ. norm   :     0.0442205 α      lambda       -0.2947944E-03
   maximum displ.:     0.0308301 α      in ANC's #7, #5, #1, ...

........................................................................
.............................. CYCLE   11 ..............................
........................................................................
   1    -11.2048816 -0.112049E+02  0.167E-01    1.74       0.0  T
   2    -11.2048832 -0.160058E-05  0.101E-01    1.76       1.0  T
   3    -11.2048544  0.288205E-04  0.810E-02    1.74       1.0  T
   4    -11.2048818 -0.274207E-04  0.356E-02    1.75       1.3  T
   5    -11.2048934 -0.116099E-04  0.463E-03    1.75       9.7  T
   6    -11.2048934  0.132167E-07  0.286E-03    1.75      15.6  T
   7    -11.2048934 -0.264052E-08  0.200E-03    1.75      22.3  T
   8    -11.2048934 -0.334309E-07  0.275E-04    1.75     162.6  T
   9    -11.2048934 -0.222292E-09  0.107E-04    1.75     418.5  T
     SCC iter.                  ...        0 min,  0.001 sec
     gradient                   ...        0 min,  0.002 sec
 * total energy  :   -11.0260364 Eh     change       -0.1613082E-03 Eh
   gradient norm :     0.0054630 Eh/α   predicted    -0.1476839E-03 (  -8.45%)
   displ. norm   :     0.0152803 α      lambda       -0.6677047E-04
   maximum displ.:     0.0131049 α      in ANC's #4, #7, #5, ...

........................................................................
.............................. CYCLE   12 ..............................
........................................................................
   1    -11.2054991 -0.112055E+02  0.699E-02    1.74       0.0  T
   2    -11.2054982  0.846377E-06  0.433E-02    1.74       1.0  T
   3    -11.2054879  0.103388E-04  0.456E-02    1.74       1.0  T
   4    -11.2054995 -0.115824E-04  0.105E-02    1.74       4.3  T
   5    -11.2055007 -0.121152E-05  0.304E-03    1.74      14.7  T
   6    -11.2055007 -0.167981E-07  0.162E-03    1.74      27.6  T
   7    -11.2055007 -0.841586E-08  0.531E-04    1.74      84.2  T
   8    -11.2055007 -0.211561E-08  0.163E-04    1.74     274.5  T
     SCC iter.                  ...        0 min,  0.001 sec
     gradient                   ...        0 min,  0.001 sec
 * total energy  :   -11.0260788 Eh     change       -0.4236693E-04 Eh
   gradient norm :     0.0019226 Eh/α   predicted    -0.3339252E-04 ( -21.18%)
   displ. norm   :     0.0128308 α      lambda       -0.9583816E-05
   maximum displ.:     0.0082432 α      in ANC's #4, #1, #5, ...

........................................................................
.............................. CYCLE   13 ..............................
........................................................................
   1    -11.2054106 -0.112054E+02  0.610E-02    1.74       0.0  T
   2    -11.2054085  0.215007E-05  0.410E-02    1.74       1.1  T
   3    -11.2054030  0.551352E-05  0.406E-02    1.74       1.1  T
   4    -11.2054116 -0.858626E-05  0.124E-02    1.74       3.6  T
   5    -11.2054128 -0.127033E-05  0.169E-03    1.74      26.4  T
   6    -11.2054128  0.123154E-07  0.151E-03    1.74      29.5  T
   7    -11.2054128 -0.150676E-07  0.655E-04    1.74      68.3  T
   8    -11.2054128 -0.344133E-08  0.126E-04    1.74     354.6  T
     SCC iter.                  ...        0 min,  0.001 sec
     gradient                   ...        0 min,  0.001 sec
 * total energy  :   -11.0260831 Eh     change       -0.4267021E-05 Eh
   gradient norm :     0.0009093 Eh/α   predicted    -0.4791038E-05 (  12.28%)
   displ. norm   :     0.0026319 α      lambda       -0.1386033E-05
   maximum displ.:     0.0022829 α      in ANC's #4, #9, #5, ...

   *** GEOMETRY OPTIMIZATION CONVERGED AFTER 13 ITERATIONS ***

------------------------------------------------------------------------
 total energy gain   :        -0.1300168 Eh      -81.5868 kcal/mol
 total RMSD          :         0.8859679 a0        0.4688 Å
 total power (kW/mol):       -26.2583864 (step)-6879.0798 (real)
------------------------------------------------------------------------

 ANCopt (total)                0 d,  0 h,  0 min,  0.050 sec
 optimizer setup                ...        0 min,  0.000 sec (  0.114%)
 model hessian                  ...        0 min,  0.000 sec (  0.155%)
 ANC generation                 ...        0 min,  0.000 sec (  0.088%)
 coordinate transformation      ...        0 min,  0.000 sec (  0.054%)
 single point calculation       ...        0 min,  0.048 sec ( 97.714%)
 optimization log               ...        0 min,  0.000 sec (  0.590%)
 hessian update                 ...        0 min,  0.000 sec (  0.051%)
 rational function              ...        0 min,  0.000 sec (  0.514%)

================
 final structure:
================
5
 xtb: 6.2.2 (9d81278992624c895f80dd42a50cac0aa55982e2)
N         1.68419244033603   -0.73827772989851   -0.10915874559014
C         0.58211206995600   -0.25577905011663   -0.11535360150945
C        -1.29449576453413    0.57000742822977    0.41040078056739
C        -0.11516808068152    1.05875024060395   -0.09957076106505
C        -0.85664166507637   -0.63470088881858   -0.08631767240275

 Bond Distances (Angstroems)
 ---------------------------
N1-C2=1.2031         C2-N1=1.2031         C2-C4=1.4881         C2-C5=1.4881         C3-C4=1.3747         C3-C5=1.3747         
C4-C2=1.4881         C4-C3=1.3747         C4-C5=1.8487         C5-C2=1.4881         C5-C3=1.3747         C5-C4=1.8487         
 C  C  Rav=1.5149 sigma=0.1745  Rmin=1.3747  Rmax=1.8487     5
 N  C  Rav=1.2031 sigma=0.0000  Rmin=1.2031  Rmax=1.2031     1

 selected bond angles (degree)
 --------------------
C4-C2-N1=141.58                C5-C2-N1=141.58                C5-C2-C4= 76.80                C5-C3-C4= 84.51                
C3-C4-C2= 95.27                C5-C4-C2= 51.60                C5-C4-C3= 47.75                C3-C5-C2= 95.27                
C4-C5-C2= 51.60                C4-C5-C3= 47.75                

 selected dihedral angles (degree)
 ---------------------------------
C3-C4-C2-N1=203.05            C3-C4-C2-C5= 20.81            C5-C4-C2-N1=182.25            C2-C4-C3-C5=337.91            
C3-C5-C2-N1=156.95            C3-C5-C2-C4=339.19            C4-C5-C2-N1=177.75            C2-C5-C3-C4= 22.09            
C2-C5-C4-C3=208.55            C3-C5-C4-C2=151.45            
           -------------------------------------------------
          |                Final Singlepoint                |
           -------------------------------------------------

          ...................................................
          :                      SETUP                      :
          :.................................................:
          :  # basis functions                  20          :
          :  # atomic orbitals                  20          :
          :  # shells                           10          :
          :  # electrons                        21          :
          :  max. iterations                   250          :
          :  Hamiltonian                  GFN2-xTB          :
          :  restarted?                      false          :
          :  GBSA solvation                  false          :
          :  PC potential                    false          :
          :  electronic temp.          300.0000000     K    :
          :  accuracy                    1.0000000          :
          :  -> integral cutoff          0.2500000E+02      :
          :  -> integral neglect         0.1000000E-07      :
          :  -> SCF convergence          0.1000000E-05 Eh   :
          :  -> wf. convergence          0.1000000E-03 e    :
          :  Broyden damping             0.4000000          :
          ...................................................

 iter      E             dE          RMSdq      gap      omega  full diag
   1    -11.2054128 -0.112054E+02  0.377E-05    1.74       0.0  T
   2    -11.2054128  0.915357E-11  0.461E-05    1.74     969.3  T
   3    -11.2054128 -0.138289E-10  0.156E-05    1.74    2865.3  T

   *** convergence criteria satisfied after 3 iterations ***

         #    Occupation            Energy/Eh            Energy/eV
      -------------------------------------------------------------
         1        2.0000           -0.7383180             -20.0907
       ...           ...                  ...                  ...
         6        2.0000           -0.5668948             -15.4260
         7        2.0000           -0.5040358             -13.7155
         8        2.0000           -0.4914659             -13.3735
         9        2.0000           -0.4683497             -12.7444
        10        1.0000           -0.4484442             -12.2028
        11        1.0000           -0.4260456             -11.5933
        12        1.0000           -0.3835566             -10.4371 (HOMO)
        13                         -0.3194358              -8.6923 (LUMO)
        14                         -0.3109087              -8.4603
        15                         -0.1991970              -5.4204
        16                          0.0709836               1.9316
        17                          0.1015216               2.7625
       ...                                ...                  ...
        20                          0.8228396              22.3906
      -------------------------------------------------------------
                  HL-Gap            0.0641208 Eh            1.7448 eV
             Fermi-level           -0.4049466 Eh          -11.0192 eV

 SCC (total)                   0 d,  0 h,  0 min,  0.003 sec
 SCC setup                      ...        0 min,  0.000 sec (  1.301%)
 Dispersion                     ...        0 min,  0.000 sec (  0.256%)
 integral evaluation            ...        0 min,  0.001 sec ( 41.707%)
 zeroth order Hamiltonian       ...        0 min,  0.000 sec (  0.426%)
 iterations                     ...        0 min,  0.000 sec ( 11.174%)
 molecular gradient             ...        0 min,  0.001 sec ( 42.737%)
 printout                       ...        0 min,  0.000 sec (  2.176%)

         :::::::::::::::::::::::::::::::::::::::::::::::::::::
         ::                     SUMMARY                     ::
         :::::::::::::::::::::::::::::::::::::::::::::::::::::
         :: total energy             -11.026083053120 Eh    ::
         :: gradient norm              0.000912099212 Eh/a0 ::
         :: HOMO-LUMO gap              1.744815674316 eV    ::
         ::.................................................::
         :: SCC energy               -11.205412841801 Eh    ::
         :: -> isotropic ES            0.001149919216 Eh    ::
         :: -> anisotropic ES          0.001201342779 Eh    ::
         :: -> anisotropic XC          0.012364051088 Eh    ::
         :: -> dispersion             -0.002755599341 Eh    ::
         :: repulsion energy           0.179329765396 Eh    ::
         :: add. restraining           0.000000000000 Eh    ::
         :::::::::::::::::::::::::::::::::::::::::::::::::::::

           ------------------------------------------------- 
          |                Numerical Hessian                |
           ------------------------------------------------- 
step length          :   0.00500
SCC accuracy         :   0.30000
Hessian scale factor :   1.00000
frozen atoms in %    :   0.00000    0
RMS gradient         :   0.00091
estimated CPU  time      0.00 min
estimated wall time      0.00 min

writing file <hessian>.

 projected vibrational frequencies (cm-1)
eigval :       -0.00    -0.00    -0.00     0.00     0.00     0.00
eigval :      244.89   369.30   505.83   512.70   628.06   834.83
eigval :      960.00  1469.72  1855.76
           -------------------------------------------------
          |                Property Printout                |
           -------------------------------------------------

    * Orbital Energies and Occupations

         #    Occupation            Energy/Eh            Energy/eV
      -------------------------------------------------------------
         1        2.0000           -0.7383181             -20.0907
         2        2.0000           -0.7003628             -19.0578
         3        2.0000           -0.6305277             -17.1575
         4        2.0000           -0.6203752             -16.8813
         5        2.0000           -0.5675293             -15.4433
         6        2.0000           -0.5668948             -15.4260
         7        2.0000           -0.5040358             -13.7155
         8        2.0000           -0.4914658             -13.3735
         9        2.0000           -0.4683497             -12.7444
        10        1.0000           -0.4484442             -12.2028
        11        1.0000           -0.4260458             -11.5933
        12        1.0000           -0.3835566             -10.4371 (HOMO)
        13                         -0.3194359              -8.6923 (LUMO)
        14                         -0.3109088              -8.4603
        15                         -0.1991970              -5.4204
        16                          0.0709836               1.9316
        17                          0.1015216               2.7625
        18                          0.1987628               5.4086
        19                          0.4230079              11.5106
        20                          0.8228397              22.3906
      -------------------------------------------------------------
                  HL-Gap            0.0641207 Eh            1.7448 eV
             Fermi-level           -0.4049466 Eh          -11.0192 eV

     #   Z        covCN         q      C6AA      α(0)
     1   7 N      0.912    -0.153    24.308     7.130
     2   6 C      3.129     0.198    23.618     7.957
     3   6 C      2.224     0.043    29.226     8.753
     4   6 C      2.732    -0.044    29.075     8.828
     5   6 C      2.732    -0.044    29.075     8.828

 Mol. C6AA /au·bohr⁶  :        673.867325
 Mol. C8AA /au·bohr⁸  :      18566.472568
 Mol. α(0) /au        :         41.496085


Wiberg/Mayer (AO) data.
largest (>0.10) Wiberg bond orders for each atom
          total WBO             WBO to atom ...
     1  N   2.333        C    2 2.089    C    3 0.175
     2  C   3.858        N    1 2.089    C    4 0.851    C    5 0.851
     3  C   2.925        C    4 1.341    C    5 1.341    N    1 0.175
     4  C   2.776        C    3 1.341    C    2 0.851    C    5 0.550
     5  C   2.776        C    3 1.341    C    2 0.851    C    4 0.550

MOs/occ written to file <molden.input>


molecular dipole:
                 x           y           z       tot (Debye)
 q only:       -0.293       0.129       0.037
   full:       -0.452       0.198       0.032       1.258
molecular quadrupole (traceless):
                xx          xy          yy          xz          yz          zz
 q only:       -0.961       0.590       0.129      -0.064       0.031       0.832
  q+dip:       -1.545       0.633      -0.375      -0.069       0.046       1.920
   full:       -2.785       1.196      -0.587       0.452      -0.171       3.372

           -------------------------------------------------
          |                Geometry Summary                 |
           -------------------------------------------------

      molecular mass/u    :       62.0496468
   center of mass at/Å    :        0.0541755      -0.0237487      -0.0035115
  moments of inertia/u·Å² :        0.2197902E+02   0.8533990E+02   0.1044104E+03
rotational constants/cm⁻¹ :        0.7669875E+00   0.1975352E+00   0.1614555E+00

 * 3 selected distances

     #   Z        #   Z                                     value/Å
     1   7 N      2   6 C                                 1.2030896 (min)
     3   6 C      4   6 C                                 1.3746833
     3   6 C      5   6 C                                 1.3746882 (max)

 * 2 distinct bonds (by element types)

   Z      Z             #   av. dist./Å        max./Å        min./Å
   6 C    6 C           2     1.3746858     1.3746882     1.3746833
   6 C    7 N           1     1.2030896     1.2030896     1.2030896

           -------------------------------------------------
          |               Frequency Printout                |
           -------------------------------------------------
 projected vibrational frequencies (cm-1)
eigval :       -0.00    -0.00    -0.00     0.00     0.00     0.00
eigval :      244.89   369.30   505.83   512.70   628.06   834.83
eigval :      960.00  1469.72  1855.76
 reduced masses (amu)
   1: 12.11   2: 12.60   3: 12.29   4: 13.11   5: 12.65   6: 12.55   7: 12.40   8: 12.67
   9: 12.03  10: 12.14  11: 12.36  12: 12.02  13: 12.36  14: 12.05  15: 12.80
Molecule has the following symmetry elements: (sigma) 
It seems to be the Cs point group
 IR intensities (amu)
   1:  0.02   2:  0.04   3:  0.09   4:  0.09   5:  0.04   6:  0.05   7:  0.32   8:  0.15
   9:  0.68  10:  0.25  11:  0.07  12:  2.64  13:  0.09  14:  0.34  15:  0.76
 Raman intensities (amu)
   1:  0.00   2:  0.00   3:  0.00   4:  0.00   5:  0.00   6:  0.00   7:  0.00   8:  0.00
   9:  0.00  10:  0.00  11:  0.00  12:  0.00  13:  0.00  14:  0.00  15:  0.00
 output can be read by thermo (or use thermo option).
 writing <g98.out> molden fake output.
 recommended (thermochemical) frequency scaling factor: 1.0
           -------------------------------------------------
          |             Thermodynamic Functions             |
           -------------------------------------------------

cs  symmetry found (for desy threshold:  0.10E+00) used in thermo

          ...................................................
          :                      SETUP                      :
          :.................................................:
          :  # frequencies                           9      :
          :  # imaginary freq.                       0      :
          :  linear?                             false      :
          :  only rotor calc.                    false      :
          :  symmetry                               cs      :
          :  rotational number                       1      :
          :  scaling factor                  1.0000000      :
          :  rotor cutoff                   50.0000000 cm⁻¹ :
          :  imag. cutoff                  -20.0000000 cm⁻¹ :
          :.................................................:

    mode    ω/cm⁻¹     T·S(HO)/kcal·mol⁻¹    T·S(FR)/kcal·mol⁻¹   T·S(vib)
   ------------------------------------------------------------------------
       1    244.89    -0.00000 ( 99.83%)     0.01409 (  0.17%)     0.00002
   ------------------------------------------------------------------------

   temp. (K)  partition function   enthalpy   heat capacity  entropy
                                   cal/mol     cal/K/mol   cal/K/mol   J/K/mol
 298.15  VIB   2.24                  961.723      7.861      4.832
         ROT  0.338E+05              888.752      2.981     23.705
         INT  0.758E+05             1850.476     10.841     28.537
         TR   0.473E+27             1481.254      4.968     38.278
         TOT                        3331.7295    15.8096    66.8146   279.5525

   temp. (K)  partition function   enthalpy   heat capacity  entropy
                                   cal/mol     cal/K/mol   cal/K/mol   J/K/mol
 120.00  VIB   1.07                   59.609      1.895      0.640
         ROT  0.863E+04              357.707      2.981     20.992
         INT  0.927E+04              417.315      4.875     21.632
         TR   0.121E+27              596.178      4.968     33.759
         TOT                        1013.4933     9.8436    55.3910   231.7559

   temp. (K)  partition function   enthalpy   heat capacity  entropy
                                   cal/mol     cal/K/mol   cal/K/mol   J/K/mol
 100.00  VIB   1.04                   28.656      1.214      0.360
         ROT  0.657E+04              298.089      2.981     20.448
         INT  0.681E+04              326.745      4.195     20.808
         TR   0.919E+26              496.815      4.968     32.853
         TOT                         823.5599     9.1627    53.6618   224.5208

   temp. (K)  partition function   enthalpy   heat capacity  entropy
                                   cal/mol     cal/K/mol   cal/K/mol   J/K/mol
  80.00  VIB   1.01                   10.375      0.636      0.158
         ROT  0.470E+04              238.471      2.981     19.783
         INT  0.476E+04              248.846      3.617     19.941
         TR   0.657E+26              397.452      4.968     31.745
         TOT                         646.2981     8.5851    51.6867   216.2571

   temp. (K)  partition function   enthalpy   heat capacity  entropy
                                   cal/mol     cal/K/mol   cal/K/mol   J/K/mol
  60.00  VIB   1.00                    2.143      0.219      0.042
         ROT  0.305E+04              178.853      2.981     18.926
         INT  0.306E+04              180.996      3.200     18.968
         TR   0.427E+26              298.089      4.968     30.317
         TOT                         479.0853     8.1684    49.2846   206.2066

   temp. (K)  partition function   enthalpy   heat capacity  entropy
                                   cal/mol     cal/K/mol   cal/K/mol   J/K/mol
  40.00  VIB   1.00                    0.106      0.024      0.003
         ROT  0.166E+04              119.236      2.981     17.717
         INT  0.166E+04              119.342      3.005     17.720
         TR   0.232E+26              198.726      4.968     28.303
         TOT                         318.0681     7.9727    46.0230   192.5601

   temp. (K)  partition function   enthalpy   heat capacity  entropy
                                   cal/mol     cal/K/mol   cal/K/mol   J/K/mol
  20.00  VIB   1.00                    0.000      0.000     -0.002
         ROT   587.                   59.618      2.981     15.651
         INT   587.                   59.618      2.981     15.649
         TR   0.822E+25               99.363      4.968     24.861
         TOT                         158.9808     7.9491    40.5102   169.4948

   temp. (K)  partition function   enthalpy   heat capacity  entropy
                                   cal/mol     cal/K/mol   cal/K/mol   J/K/mol
  10.00  VIB   1.00                    0.000      0.000     -0.004
         ROT   208.                   29.809      2.981     13.585
         INT   208.                   29.809      2.981     13.581
         TR   0.290E+25               49.681      4.968     21.419
         TOT                          79.4904     7.9490    35.0005   146.4419

       T/K    H(0)-H(T)+PV         H(T)/Eh          T*S/Eh         G(T)/Eh
   ------------------------------------------------------------------------
    298.15    0.530945E-02    0.221248E-01    0.317458E-01   -0.962096E-02
    120.00    0.161510E-02    0.184305E-01    0.105925E-01    0.783795E-02
    100.00    0.131243E-02    0.181278E-01    0.855155E-02    0.957626E-02
     80.00    0.102994E-02    0.178453E-01    0.658944E-02    0.112559E-01
     60.00    0.763471E-03    0.175789E-01    0.471240E-02    0.128665E-01
     40.00    0.506874E-03    0.173223E-01    0.293369E-02    0.143886E-01
     20.00    0.253352E-03    0.170687E-01    0.129114E-02    0.157776E-01
     10.00    0.126676E-03    0.169421E-01    0.557768E-03    0.163843E-01 (used)
   ------------------------------------------------------------------------

         :::::::::::::::::::::::::::::::::::::::::::::::::::::
         ::                  THERMODYNAMIC                  ::
         :::::::::::::::::::::::::::::::::::::::::::::::::::::
         :: total free energy         -11.009698763591 Eh   ::
         ::.................................................::
         :: total energy              -11.026083053150 Eh   ::
         :: zero point energy           0.016815381396 Eh   ::
         :: G(RRHO) w/o ZPVE           -0.000431091837 Eh   ::
         :: G(RRHO) contrib.            0.016384289559 Eh   ::
         :::::::::::::::::::::::::::::::::::::::::::::::::::::

optimized geometry written to: xtbopt.xyz


           -------------------------------------------------
          | TOTAL ENERGY              -11.026083053150 Eh   |
          | TOTAL ENTHALPY            -11.009140995738 Eh   |
          | TOTAL FREE ENERGY         -11.009698763591 Eh   |
          | GRADIENT NORM               0.000912105306 Eh/α |
          | HOMO-LUMO GAP               1.744813427748 eV   |
           -------------------------------------------------

------------------------------------------------------------------------
 * finished run on 2020/05/12 at 11:44:08.824     
------------------------------------------------------------------------
 total:
 * wall-time:     0 d,  0 h,  0 min,  0.178 sec
 *  cpu-time:     0 d,  0 h,  0 min,  0.178 sec
 * ratio c/w:     0.999 speedup
 SCF:
 * wall-time:     0 d,  0 h,  0 min,  0.005 sec
 *  cpu-time:     0 d,  0 h,  0 min,  0.005 sec
 * ratio c/w:     1.000 speedup
 ANC optimizer:
 * wall-time:     0 d,  0 h,  0 min,  0.053 sec
 *  cpu-time:     0 d,  0 h,  0 min,  0.053 sec
 * ratio c/w:     0.999 speedup
 numerical hessian:
 * wall-time:     0 d,  0 h,  0 min,  0.104 sec
 *  cpu-time:     0 d,  0 h,  0 min,  0.104 sec
 * ratio c/w:     1.000 speedup

