 Entering Gaussian System
 *********************************************
 Gaussian 98:
 frequency output generated by the xtb code
 *********************************************
                         Standard orientation:
 --------------------------------------------------------------------
  Center     Atomic     Atomic              Coordinates (Angstroms)
  Number     Number      Type              X           Y           Z
 --------------------------------------------------------------------
    1          6             0        0.041016   -0.334150    0.011450
    2          7             0       -0.559387    1.142140   -0.023103
    3          6             0        0.661841    0.962091   -0.062798
    4          1             0       -0.036531   -0.849181    0.957618
    5          1             0       -0.106938   -0.920899   -0.883167
 --------------------------------------------------------------------
     1 basis functions        1 primitive gaussians
     1 alpha electrons        1 beta electrons

 Harmonic frequencies (cm**-1), IR intensities (KM/Mole),
 Raman scattering activities (A**4/amu), Raman depolarization ratios,
 reduced masses (AMU), force constants (mDyne/A) and normal coordinates:
                      1                      2                      3
                        a                      a                      a 
 Frequencies --   677.0724               782.0610               927.4013
 Red. masses --    12.8013                 2.8162                 3.1727
 Frc consts  --     0.0000                 0.0000                 0.0000
 IR Inten    --     0.7139                 0.0410                 0.2357
 Raman Activ --     0.0000                 0.0000                 0.0000
 Depolar     --     0.0000                 0.0000                 0.0000
 Atom AN      X      Y      Z        X      Y      Z        X      Y      Z
   1   6    -0.43   0.44  -0.00     0.00   0.00   0.04     0.34  -0.07  -0.01
   2   7     0.11  -0.67   0.02     0.01   0.01   0.25     0.01  -0.17   0.01
   3   6     0.31   0.24  -0.02    -0.01  -0.01  -0.29     0.01   0.19  -0.01
   4   1     0.00   0.07  -0.01    -0.65   0.07  -0.01    -0.63   0.10   0.01
   5   1     0.00   0.07   0.01     0.64  -0.07  -0.06    -0.63   0.10   0.03
                      4                      5                      6
                        a                      a                      a 
 Frequencies --  1007.0904              1227.6187              1405.4073
 Red. masses --     3.4145                11.0322                 2.3906
 Frc consts  --     0.0000                 0.0000                 0.0000
 IR Inten    --     0.1996                 0.4214                 0.1324
 Raman Activ --     0.0000                 0.0000                 0.0000
 Depolar     --     0.0000                 0.0000                 0.0000
 Atom AN      X      Y      Z        X      Y      Z        X      Y      Z
   1   6     0.02   0.02   0.42    -0.28  -0.58   0.03    -0.08  -0.32   0.02
   2   7    -0.00  -0.01  -0.11     0.21   0.04  -0.01     0.09  -0.05  -0.00
   3   6    -0.01  -0.01  -0.16     0.04   0.66  -0.03    -0.07   0.05   0.00
   4   1    -0.03  -0.58  -0.22     0.02  -0.22  -0.02     0.10   0.56   0.34
   5   1     0.01   0.57  -0.27     0.02  -0.22   0.03     0.08   0.53  -0.39
                      7                      8                      9
                        a                      a                      a 
 Frequencies --  1856.6065              3062.4038              3081.1456
 Red. masses --    12.8199                 1.4151                 2.1339
 Frc consts  --     0.0000                 0.0000                 0.0000
 IR Inten    --     0.8913                 0.1070                 0.2151
 Raman Activ --     0.0000                 0.0000                 0.0000
 Depolar     --     0.0000                 0.0000                 0.0000
 Atom AN      X      Y      Z        X      Y      Z        X      Y      Z
   1   6     0.02   0.17  -0.01    -0.04  -0.19   0.01    -0.01  -0.01  -0.32
   2   7     0.65  -0.14  -0.02    -0.01  -0.00   0.00     0.00  -0.00  -0.00
   3   6    -0.72  -0.01   0.03     0.02  -0.00  -0.00    -0.00  -0.00  -0.01
   4   1     0.01  -0.02  -0.05     0.04   0.31  -0.62    -0.06  -0.33   0.58
   5   1     0.01  -0.01   0.05     0.09   0.36   0.59     0.10   0.37   0.54
