      -----------------------------------------------------------      
     |                   =====================                   |     
     |                           x T B                           |     
     |                   =====================                   |     
     |                         S. Grimme                         |     
     |          Mulliken Center for Theoretical Chemistry        |     
     |                    University of Bonn                     |     
      -----------------------------------------------------------      

   * xtb version 6.2.2 (9d81278992624c895f80dd42a50cac0aa55982e2) compiled by '@Darwin' on 04/03/2020

   xtb is free software: you can redistribute it and/or modify it under
   the terms of the GNU Lesser General Public License as published by
   the Free Software Foundation, either version 3 of the License, or
   (at your option) any later version.
   
   xtb is distributed in the hope that it will be useful,
   but WITHOUT ANY WARRANTY; without even the implied warranty of
   MERCHANTABILITY or FITNESS FOR A PARTICULAR PURPOSE.  See the
   GNU Lesser General Public License for more details.
   
   Cite this work as:
   * S. Grimme, C. Bannwarth, P. Shushkov, J. Chem. Theory Comput., 2017,
     13, 1989-2009. DOI: 10.1021/acs.jctc.7b00118
   * C. Bannwarth, S. Ehlert and S. Grimme., J. Chem. Theory Comput., 2019,
     15, 1652-1671. DOI: 10.1021/acs.jctc.8b01176
   * P. Pracht, E. Caldeweyher, S. Ehlert, S. Grimme, ChemRxiv, 2019, preprint.
     DOI: 10.26434/chemrxiv.8326202.v1
   
   for DFT-D4:
   * E. Caldeweyher, C. Bannwarth and S. Grimme, J. Chem. Phys., 2017,
     147, 034112. DOI: 10.1063/1.4993215
   * E. Caldeweyher, S. Ehlert, A. Hansen, H. Neugebauer, S. Spicher,
     C. Bannwarth and S. Grimme, J. Chem. Phys., 2019, 150, 154122.
     DOI: 10.1063/1.5090222
   
   for sTDA-xTB:
   * S. Grimme and C. Bannwarth, J. Chem. Phys., 2016, 145, 054103.
     DOI: 10.1063/1.4959605
   
   in the mass-spec context:
   * V. Asgeirsson, C. Bauer and S. Grimme, Chem. Sci., 2017, 8, 4879.
     DOI: 10.1039/c7sc00601b
   
   for metadynamics refer to:
   * S. Grimme, J. Chem. Theory Comput., 2019, 155, 2847-2862
     DOI: 10.1021/acs.jctc.9b00143
   
   with help from (in alphabetical order)
   C. Bannwarth, F. Bohle, G. Brandenburg, E. Caldeweyher, M. Checinski,
   S. Dohm, S. Ehlert, S. Ehrlich, F. März, H. Neugebauer, J. Pisarek,
   P. Pracht, P. Shushkov, and S. Spicher.
   
 * started run on 2020/05/12 at 11:44:44.986     

           -------------------------------------------------
          |                Calculation Setup                |
           -------------------------------------------------

          program call               : xtb --input H2C2N1_0_S_1.input H2C2N1_0_S_1.xyz --ohess --molden --namespace H2C2N1_0_S_1 output.out
          calculation namespace      : H2C2N1_0_S_1
          coordinate file            : H2C2N1_0_S_1.xyz
          number of atoms            :                     5
          number of electrons        :                    15
          charge                     :                     0
          spin                       :                   0.5
          first test random number   :      0.36875571515032

   ID    Z sym.   atoms
    1    6 C      1, 3
    2    7 N      2
    3    1 H      4, 5

           -------------------------------------------------
          |                 G F N 2 - x T B                 |
           -------------------------------------------------

        Reference                      10.1021/acs.jctc.8b01176
      * Hamiltonian:
        H0-scaling (s, p, d)           1.850000    2.230000    2.230000
        zeta-weighting                 0.500000
      * Dispersion:
        s8                             2.700000
        a1                             0.520000
        a2                             5.000000
        s9                             5.000000
      * Repulsion:
        kExp                           1.500000    1.000000
        rExp                           1.000000
      * Coulomb:
        alpha                          2.000000
        third order                    shell-resolved
        anisotropic                    true
        a3                             3.000000
        a5                             4.000000
        cn-shift                       1.200000
        cn-exp                         4.000000
        max-rad                        5.000000


          ...................................................
          :                      SETUP                      :
          :.................................................:
          :  # basis functions                  14          :
          :  # atomic orbitals                  14          :
          :  # shells                            8          :
          :  # electrons                        15          :
          :  max. iterations                   250          :
          :  Hamiltonian                  GFN2-xTB          :
          :  restarted?                      false          :
          :  GBSA solvation                  false          :
          :  PC potential                    false          :
          :  electronic temp.          300.0000000     K    :
          :  accuracy                    1.0000000          :
          :  -> integral cutoff          0.2500000E+02      :
          :  -> integral neglect         0.1000000E-07      :
          :  -> SCF convergence          0.1000000E-05 Eh   :
          :  -> wf. convergence          0.1000000E-03 e    :
          :  Broyden damping             0.4000000          :
          ...................................................

 iter      E             dE          RMSdq      gap      omega  full diag
   1     -7.8687764 -0.786878E+01  0.729E+00    0.48       0.0  T
   2     -7.3302898  0.538487E+00  0.976E+00    1.43       1.0  T
   3     -6.8306609  0.499629E+00  0.119E+01    0.83       1.0  T
   4     -7.3971104 -0.566450E+00  0.835E+00    1.46       1.0  T
   5     -7.8424918 -0.445381E+00  0.501E+00    0.61       1.0  T
   6     -7.8459160 -0.342417E-02  0.478E+00    0.62       1.0  T
   7     -7.8625212 -0.166051E-01  0.299E+00    0.63       1.0  T
   8     -7.8640460 -0.152481E-02  0.312E+00    0.61       1.0  T
   9     -7.8923277 -0.282817E-01  0.144E+00    0.56       1.0  T
  10     -7.8820544  0.102733E-01  0.387E+00    0.51       1.0  T
  11     -7.8946190 -0.125645E-01  0.123E+00    0.56       1.0  T
  12     -7.8962155 -0.159653E-02  0.659E-01    0.56       1.0  T
  13     -7.8967239 -0.508403E-03  0.972E-01    0.56       1.0  T
  14     -7.8978364 -0.111243E-02  0.889E-01    0.58       1.0  T
  15     -7.8982095 -0.373148E-03  0.529E-01    0.59       1.0  T
  16     -7.8984407 -0.231232E-03  0.585E-02    0.58       1.0  T
  17     -7.8984401  0.630069E-06  0.434E-02    0.58       1.0  T
  18     -7.8984440 -0.390017E-05  0.113E-02    0.58       4.0  T
  19     -7.8984446 -0.557005E-06  0.844E-03    0.58       5.3  T
  20     -7.8984446 -0.229038E-07  0.828E-03    0.58       5.4  T
  21     -7.8984446 -0.435763E-07  0.329E-03    0.58      13.6  T
  22     -7.8984446 -0.172690E-07  0.494E-04    0.58      90.5  T
  23     -7.8984446 -0.994211E-09  0.674E-04    0.58      66.4  T

   *** convergence criteria satisfied after 23 iterations ***

         #    Occupation            Energy/Eh            Energy/eV
      -------------------------------------------------------------
         1        2.0000           -0.6786537             -18.4671
         2        2.0000           -0.6216126             -16.9149
         3        2.0000           -0.5845318             -15.9059
         4        2.0000           -0.5519440             -15.0192
         5        2.0000           -0.4881349             -13.2828
         6        2.0000           -0.4560508             -12.4098
         7        1.5845           -0.3934580             -10.7065
         8        1.4154           -0.3928091             -10.6889 (HOMO)
         9        0.0000           -0.3714386             -10.1074 (LUMO)
        10        0.0000           -0.3710327             -10.0963
        11                          0.0737911               2.0080
        12                          0.0867292               2.3600
        13                          0.1159025               3.1539
        14                          0.1525401               4.1508
      -------------------------------------------------------------
                  HL-Gap            0.0213705 Eh            0.5815 eV
             Fermi-level           -0.3876509 Eh          -10.5485 eV

 SCC (total)                   0 d,  0 h,  0 min,  0.003 sec
 SCC setup                      ...        0 min,  0.000 sec (  2.569%)
 Dispersion                     ...        0 min,  0.000 sec (  0.397%)
 integral evaluation            ...        0 min,  0.001 sec ( 21.041%)
 zeroth order Hamiltonian       ...        0 min,  0.000 sec (  0.678%)
 iterations                     ...        0 min,  0.002 sec ( 50.010%)
 molecular gradient             ...        0 min,  0.001 sec ( 21.788%)
 printout                       ...        0 min,  0.000 sec (  3.213%)

         :::::::::::::::::::::::::::::::::::::::::::::::::::::
         ::                     SUMMARY                     ::
         :::::::::::::::::::::::::::::::::::::::::::::::::::::
         :: total energy              -7.843339201090 Eh    ::
         :: gradient norm              0.104917638538 Eh/a0 ::
         :: HOMO-LUMO gap              0.581521905503 eV    ::
         ::.................................................::
         :: SCC energy                -7.898444648858 Eh    ::
         :: -> isotropic ES           -0.003664377281 Eh    ::
         :: -> anisotropic ES         -0.000889412996 Eh    ::
         :: -> anisotropic XC          0.010256477266 Eh    ::
         :: -> dispersion             -0.001413904631 Eh    ::
         :: repulsion energy           0.055105399605 Eh    ::
         :: add. restraining           0.000000000000 Eh    ::
         :::::::::::::::::::::::::::::::::::::::::::::::::::::

      ----------------------------------------------------------- 
     |                   =====================                   |
     |                        A N C O P T                        |
     |                   =====================                   |
     |               Approximate Normal Coordinate               |
     |                Rational Function Optimizer                |
      ----------------------------------------------------------- 

          ...................................................
          :                      SETUP                      :
          :.................................................:
          :   optimization level            normal          :
          :   max. optcycles                   200          :
          :   ANC micro-cycles                  20          :
          :   degrees of freedom                 9          :
          :.................................................:
          :   RF solver                   davidson          :
          :   write xtbopt.log                true          :
          :   linear?                        false          :
          :   energy convergence         0.5000000E-05 Eh   :
          :   grad. convergence          0.1000000E-02 Eh/α :
          :   maximium RF displ.         1.0000000          :
          :   Hlow (freq-cutoff)         0.1000000E-01      :
          :   Hmax (freq-cutoff)         5.0000000          :
          :   S6 in model hess.         20.0000000          :
          ...................................................

generating ANC from model Hessian ...
Using Lindh-Hessian (1995)
 Shifting diagonal of input Hessian by    0.0000000000000000     
 Lowest  eigenvalues of input Hessian
   -0.000000   -0.000000   -0.000000    0.000000    0.000000    0.000000
    0.076024    0.076710    0.098867    0.108665    0.122130    0.432504
    1.014947    1.039096    1.194527
 Highest eigenvalues
    0.108665    0.122130    0.432504    1.014947    1.039096    1.194527


........................................................................
.............................. CYCLE    1 ..............................
........................................................................
   1     -7.8984446 -0.789844E+01  0.615E-05    0.58       0.0  T
   2     -7.8984446  0.213269E-09  0.189E-04    0.58     237.1  T
   3     -7.8984446  0.734325E-09  0.354E-04    0.58     126.3  T
     SCC iter.                  ...        0 min,  0.000 sec
     gradient                   ...        0 min,  0.001 sec
 * total energy  :    -7.8433392 Eh     change        0.2219523E-08 Eh
   gradient norm :     0.1049155 Eh/α   predicted     0.0000000E+00 (-100.00%)
   displ. norm   :     0.2887768 α      lambda       -0.2152606E-01
   maximum displ.:     0.1855988 α      in ANC's #2, #6, #4, ...

........................................................................
.............................. CYCLE    2 ..............................
........................................................................
   1     -7.9231498 -0.792315E+01  0.363E+00    0.59       0.0  T
   2     -7.6128983  0.310252E+00  0.678E+00    1.31       1.0  T
   3     -7.2873765  0.325522E+00  0.985E+00    0.78       1.0  T
   4     -7.9175378 -0.630161E+00  0.231E+00    0.81       1.0  T
   5     -7.9278495 -0.103117E-01  0.125E+00    0.76       1.0  T
   6     -7.9258550  0.199457E-02  0.125E+00    0.77       1.0  T
   7     -7.9321103 -0.625534E-02  0.831E-01    0.71       1.0  T
   8     -7.9319494  0.160880E-03  0.679E-01    0.71       1.0  T
   9     -7.9336151 -0.166571E-02  0.370E-01    0.68       1.0  T
  10     -7.9342671 -0.652010E-03  0.137E-01    0.66       1.0  T
  11     -7.9343396 -0.725007E-04  0.474E-02    0.66       1.0  T
  12     -7.9343499 -0.102232E-04  0.217E-02    0.65       2.1  T
  13     -7.9343519 -0.200553E-05  0.347E-03    0.65      12.9  T
  14     -7.9343519 -0.555754E-07  0.171E-03    0.65      26.1  T
  15     -7.9343519 -0.600071E-08  0.258E-04    0.65     173.6  T
  16     -7.9343519  0.579137E-10  0.237E-04    0.65     188.3  T
     SCC iter.                  ...        0 min,  0.001 sec
     gradient                   ...        0 min,  0.001 sec
 * total energy  :    -7.8620769 Eh     change       -0.1873766E-01 Eh
   gradient norm :     0.0598124 Eh/α   predicted    -0.1166058E-01 ( -37.77%)
   displ. norm   :     0.8735572 α      lambda       -0.4742088E-01
   maximum displ.:     0.6999416 α      in ANC's #2, #4, #6, ...

........................................................................
.............................. CYCLE    3 ..............................
........................................................................
   1     -8.0214032 -0.802140E+01  0.671E+00    1.61       0.0  T
   2     -7.9988888  0.225144E-01  0.414E+00    2.73       1.0  T
   3     -7.9479264  0.509624E-01  0.470E+00    1.20       1.0  T
   4     -8.0438137 -0.958873E-01  0.984E-01    2.01       1.0  T
   5     -8.0446802 -0.866550E-03  0.771E-01    1.96       1.0  T
   6     -8.0455637 -0.883478E-03  0.273E-01    1.87       1.0  T
   7     -8.0457142 -0.150468E-03  0.843E-02    1.82       1.0  T
   8     -8.0457199 -0.569169E-05  0.119E-02    1.81       3.8  T
   9     -8.0457200 -0.140242E-06  0.298E-03    1.81      15.0  T
  10     -8.0457200 -0.222292E-07  0.311E-04    1.80     143.8  T
  11     -8.0457200  0.189928E-10  0.289E-04    1.80     154.7  T
     SCC iter.                  ...        0 min,  0.001 sec
     gradient                   ...        0 min,  0.001 sec
 * total energy  :    -7.9357192 Eh     change       -0.7364229E-01 Eh
   gradient norm :     0.1670578 Eh/α   predicted    -0.4180390E-01 ( -43.23%)
   displ. norm   :     0.8909561 α      lambda       -0.1093204E+00
   maximum displ.:     0.7268168 α      in ANC's #2, #4, #6, ...

........................................................................
.............................. CYCLE    4 ..............................
........................................................................
   1     -8.1364281 -0.813643E+01  0.105E+01    6.13       0.0  T
   2     -8.1286669  0.776123E-02  0.669E+00    5.28       1.0  T
   3     -8.1484649 -0.197980E-01  0.479E+00    5.82       1.0  T
   4     -8.1821034 -0.336385E-01  0.242E+00    5.71       1.0  T
   5     -8.1977820 -0.156787E-01  0.172E+00    5.63       1.0  T
   6     -8.1976441  0.137943E-03  0.176E+00    5.63       1.0  T
   7     -8.2010483 -0.340425E-02  0.330E-01    5.63       1.0  T
   8     -8.2011758 -0.127507E-03  0.385E-02    5.63       1.2  T
   9     -8.2011775 -0.172363E-05  0.262E-02    5.63       1.7  T
  10     -8.2011785 -0.979314E-06  0.173E-02    5.63       2.6  T
  11     -8.2011792 -0.709555E-06  0.273E-03    5.63      16.4  T
  12     -8.2011793 -0.171881E-07  0.355E-04    5.63     125.8  T
  13     -8.2011793 -0.241878E-09  0.455E-05    5.63     982.1  T
     SCC iter.                  ...        0 min,  0.001 sec
     gradient                   ...        0 min,  0.001 sec
 * total energy  :    -7.9039344 Eh     change        0.3178473E-01 Eh
   gradient norm :     0.9398410 Eh/α   predicted    -0.9804957E-01 (-408.48%)
   displ. norm   :     0.4989477 α      lambda       -0.4662943E+00
   maximum displ.:     0.3053713 α      in ANC's #6, #2, #4, ...

........................................................................
.............................. CYCLE    5 ..............................
........................................................................
   1     -8.0325498 -0.803255E+01  0.527E+00    2.66       0.0  T
   2     -8.0219520  0.105978E-01  0.437E+00    3.09       1.0  T
   3     -8.0510757 -0.291237E-01  0.250E+00    3.00       1.0  T
   4     -8.0470693  0.400634E-02  0.200E+00    3.18       1.0  T
   5     -8.0616242 -0.145549E-01  0.849E-01    3.21       1.0  T
   6     -8.0569726  0.465161E-02  0.115E+00    3.19       1.0  T
   7     -8.0597131 -0.274056E-02  0.981E-01    3.18       1.0  T
   8     -8.0617226 -0.200945E-02  0.193E-01    3.19       1.0  T
   9     -8.0617644 -0.418409E-04  0.103E-01    3.20       1.0  T
  10     -8.0617724 -0.794576E-05  0.270E-02    3.20       1.7  T
  11     -8.0617736 -0.120587E-05  0.809E-03    3.20       5.5  T
  12     -8.0617736 -0.787844E-08  0.590E-03    3.20       7.6  T
  13     -8.0617736 -0.462973E-07  0.351E-03    3.20      12.8  T
  14     -8.0617737 -0.201872E-07  0.618E-04    3.20      72.4  T
  15     -8.0617737 -0.577639E-09  0.263E-04    3.20     170.2  T
     SCC iter.                  ...        0 min,  0.001 sec
     gradient                   ...        0 min,  0.001 sec
 * total energy  :    -7.9853482 Eh     change       -0.8141375E-01 Eh
   gradient norm :     0.2073294 Eh/α   predicted    -0.2911888E+00 ( 257.67%)
   displ. norm   :     0.1371234 α      lambda       -0.2068241E-01
   maximum displ.:     0.0964531 α      in ANC's #5, #2, #8, ...

........................................................................
.............................. CYCLE    6 ..............................
........................................................................
   1     -8.0903172 -0.809032E+01  0.128E+00    3.42       0.0  T
   2     -8.0835698  0.674746E-02  0.141E+00    3.37       1.0  T
   3     -8.0897943 -0.622459E-02  0.911E-01    3.37       1.0  T
   4     -8.0915937 -0.179934E-02  0.427E-01    3.34       1.0  T
   5     -8.0915977 -0.400346E-05  0.421E-01    3.34       1.0  T
   6     -8.0919156 -0.317908E-03  0.970E-02    3.33       1.0  T
   7     -8.0919363 -0.206546E-04  0.186E-02    3.33       2.4  T
   8     -8.0919366 -0.339863E-06  0.402E-03    3.33      11.1  T
   9     -8.0919366 -0.260482E-07  0.737E-04    3.33      60.7  T
  10     -8.0919366 -0.137725E-08  0.149E-04    3.33     301.0  T
     SCC iter.                  ...        0 min,  0.001 sec
     gradient                   ...        0 min,  0.001 sec
 * total energy  :    -8.0039998 Eh     change       -0.1865167E-01 Eh
   gradient norm :     0.1558483 Eh/α   predicted    -0.1053565E-01 ( -43.51%)
   displ. norm   :     0.4209652 α      lambda       -0.5513238E-01
   maximum displ.:     0.2468178 α      in ANC's #2, #5, #4, ...

........................................................................
.............................. CYCLE    7 ..............................
........................................................................
   1     -8.1754661 -0.817547E+01  0.352E+00    4.41       0.0  T
   2     -8.1791783 -0.371219E-02  0.201E+00    4.10       1.0  T
   3     -8.1795541 -0.375756E-03  0.123E+00    4.26       1.0  T
   4     -8.1820135 -0.245945E-02  0.145E-01    4.14       1.0  T
   5     -8.1820906 -0.771000E-04  0.600E-02    4.14       1.0  T
   6     -8.1820933 -0.264711E-05  0.873E-03    4.14       5.1  T
   7     -8.1820933 -0.533561E-07  0.317E-03    4.14      14.1  T
   8     -8.1820933 -0.167378E-08  0.449E-04    4.14      99.5  T
   9     -8.1820933 -0.148631E-09  0.915E-05    4.14     488.6  T
     SCC iter.                  ...        0 min,  0.001 sec
     gradient                   ...        0 min,  0.001 sec
 * total energy  :    -7.9904570 Eh     change        0.1354281E-01 Eh
   gradient norm :     0.3951755 Eh/α   predicted    -0.3245123E-01 (-339.62%)
   displ. norm   :     0.2233513 α      lambda       -0.7599024E-01
   maximum displ.:     0.1424015 α      in ANC's #2, #4, #6, ...

........................................................................
.............................. CYCLE    8 ..............................
........................................................................
   1     -8.1232341 -0.812323E+01  0.211E+00    3.28       0.0  T
   2     -8.1237973 -0.563178E-03  0.138E+00    3.44       1.0  T
   3     -8.1246821 -0.884754E-03  0.880E-01    3.35       1.0  T
   4     -8.1260045 -0.132246E-02  0.272E-01    3.42       1.0  T
   5     -8.1263087 -0.304131E-03  0.800E-02    3.43       1.0  T
   6     -8.1263097 -0.100435E-05  0.201E-02    3.43       2.2  T
   7     -8.1263108 -0.111703E-05  0.445E-03    3.43      10.1  T
   8     -8.1263108 -0.144916E-07  0.913E-04    3.43      49.0  T
   9     -8.1263108 -0.164592E-08  0.190E-04    3.43     234.8  T
     SCC iter.                  ...        0 min,  0.001 sec
     gradient                   ...        0 min,  0.001 sec
 * total energy  :    -8.0176679 Eh     change       -0.2721085E-01 Eh
   gradient norm :     0.0490181 Eh/α   predicted    -0.3989054E-01 (  46.60%)
   displ. norm   :     0.0970627 α      lambda       -0.2406058E-02
   maximum displ.:     0.0868474 α      in ANC's #5, #2, #9, ...

........................................................................
.............................. CYCLE    9 ..............................
........................................................................
   1     -8.1322054 -0.813221E+01  0.354E-01    3.57       0.0  T
   2     -8.1322157 -0.103500E-04  0.217E-01    3.55       1.0  T
   3     -8.1321946  0.210750E-04  0.161E-01    3.56       1.0  T
   4     -8.1322642 -0.695947E-04  0.345E-02    3.55       1.3  T
   5     -8.1322693 -0.507241E-05  0.171E-02    3.55       2.6  T
   6     -8.1322698 -0.530482E-06  0.143E-03    3.55      31.2  T
   7     -8.1322698 -0.334017E-08  0.420E-04    3.55     106.5  T
   8     -8.1322698 -0.237819E-10  0.133E-04    3.55     336.4  T
     SCC iter.                  ...        0 min,  0.000 sec
     gradient                   ...        0 min,  0.001 sec
 * total energy  :    -8.0191681 Eh     change       -0.1500260E-02 Eh
   gradient norm :     0.0261257 Eh/α   predicted    -0.1214363E-02 ( -19.06%)
   displ. norm   :     0.0480792 α      lambda       -0.1104545E-02
   maximum displ.:     0.0300152 α      in ANC's #8, #9, #5, ...

........................................................................
.............................. CYCLE   10 ..............................
........................................................................
   1     -8.1406920 -0.814069E+01  0.232E-01    3.59       0.0  T
   2     -8.1406930 -0.987925E-06  0.143E-01    3.59       1.0  T
   3     -8.1406476  0.454512E-04  0.108E-01    3.58       1.0  T
   4     -8.1407026 -0.549842E-04  0.144E-02    3.58       3.1  T
   5     -8.1407026 -0.787079E-07  0.753E-03    3.58       5.9  T
   6     -8.1407028 -0.115126E-06  0.109E-03    3.58      41.0  T
   7     -8.1407028 -0.913595E-09  0.352E-04    3.58     127.2  T
   8     -8.1407028 -0.930775E-10  0.779E-05    3.58     574.3  T
     SCC iter.                  ...        0 min,  0.001 sec
     gradient                   ...        0 min,  0.001 sec
 * total energy  :    -8.0197364 Eh     change       -0.5682901E-03 Eh
   gradient norm :     0.0220816 Eh/α   predicted    -0.5535505E-03 (  -2.59%)
   displ. norm   :     0.0241592 α      lambda       -0.2551988E-03
   maximum displ.:     0.0158572 α      in ANC's #9, #5, #4, ...

........................................................................
.............................. CYCLE   11 ..............................
........................................................................
   1     -8.1401088 -0.814011E+01  0.891E-02    3.56       0.0  T
   2     -8.1401090 -0.202566E-06  0.544E-02    3.56       1.0  T
   3     -8.1401052  0.378355E-05  0.431E-02    3.56       1.0  T
   4     -8.1401114 -0.615158E-05  0.607E-03    3.56       7.4  T
   5     -8.1401115 -0.812559E-07  0.368E-03    3.56      12.1  T
   6     -8.1401115 -0.291260E-07  0.492E-04    3.56      90.9  T
   7     -8.1401115 -0.168944E-09  0.746E-05    3.56     599.7  T
     SCC iter.                  ...        0 min,  0.000 sec
     gradient                   ...        0 min,  0.001 sec
 * total energy  :    -8.0199463 Eh     change       -0.2099017E-03 Eh
   gradient norm :     0.0175167 Eh/α   predicted    -0.1276724E-03 ( -39.18%)
   displ. norm   :     0.0453805 α      lambda       -0.4778127E-03
   maximum displ.:     0.0398239 α      in ANC's #9, #5, #8, ...

........................................................................
.............................. CYCLE   12 ..............................
........................................................................
   1     -8.1389543 -0.813895E+01  0.227E-01    3.47       0.0  T
   2     -8.1389571 -0.277861E-05  0.140E-01    3.48       1.0  T
   3     -8.1389469  0.101639E-04  0.104E-01    3.48       1.0  T
   4     -8.1389773 -0.303301E-04  0.200E-02    3.48       2.2  T
   5     -8.1389788 -0.151752E-05  0.874E-03    3.48       5.1  T
   6     -8.1389789 -0.952658E-07  0.131E-03    3.48      34.1  T
   7     -8.1389789 -0.823512E-09  0.240E-04    3.48     186.0  T
   8     -8.1389789 -0.549445E-10  0.726E-05    3.48     616.2  T
     SCC iter.                  ...        0 min,  0.001 sec
     gradient                   ...        0 min,  0.001 sec
 * total energy  :    -8.0202022 Eh     change       -0.2559146E-03 Eh
   gradient norm :     0.0018013 Eh/α   predicted    -0.2393999E-03 (  -6.45%)
   displ. norm   :     0.0089999 α      lambda       -0.8736244E-05
   maximum displ.:     0.0061032 α      in ANC's #9, #5, #2, ...

........................................................................
.............................. CYCLE   13 ..............................
........................................................................
   1     -8.1388719 -0.813887E+01  0.472E-02    3.46       0.0  T
   2     -8.1388720 -0.165517E-06  0.263E-02    3.47       1.7  T
   3     -8.1388719  0.140237E-06  0.711E-03    3.46       6.3  T
   4     -8.1388721 -0.211954E-06  0.197E-03    3.47      22.7  T
   5     -8.1388721 -0.283686E-09  0.107E-03    3.47      41.9  T
   6     -8.1388721 -0.485001E-08  0.233E-04    3.47     191.9  T
   7     -8.1388721 -0.359162E-10  0.377E-05    3.47    1185.2  T
     SCC iter.                  ...        0 min,  0.000 sec
     gradient                   ...        0 min,  0.001 sec
 * total energy  :    -8.0202076 Eh     change       -0.5313654E-05 Eh
   gradient norm :     0.0007153 Eh/α   predicted    -0.4367396E-05 ( -17.81%)
   displ. norm   :     0.0018717 α      lambda       -0.6573674E-06
   maximum displ.:     0.0015596 α      in ANC's #9, #2, #6, ...

........................................................................
.............................. CYCLE   14 ..............................
........................................................................
   1     -8.1388396 -0.813884E+01  0.897E-03    3.47       0.0  T
   2     -8.1388396 -0.165265E-07  0.547E-03    3.47       8.2  T
   3     -8.1388396  0.344622E-08  0.358E-03    3.47      12.5  T
   4     -8.1388396 -0.288296E-07  0.990E-04    3.47      45.2  T
   5     -8.1388396 -0.345577E-08  0.463E-04    3.47      96.7  T
     SCC iter.                  ...        0 min,  0.000 sec
     gradient                   ...        0 min,  0.001 sec
 * total energy  :    -8.0202081 Eh     change       -0.4996899E-06 Eh
   gradient norm :     0.0000874 Eh/α   predicted    -0.3285341E-06 ( -34.25%)
   displ. norm   :     0.0001952 α      lambda       -0.7867040E-08
   maximum displ.:     0.0001380 α      in ANC's #4, #5, #8, ...

   *** GEOMETRY OPTIMIZATION CONVERGED AFTER 14 ITERATIONS ***

------------------------------------------------------------------------
 total energy gain   :        -0.1768689 Eh     -110.9869 kcal/mol
 total RMSD          :         0.8441342 a0        0.4467 Å
 total power (kW/mol):       -33.1692228 (step)********** (real)
------------------------------------------------------------------------

 ANCopt (total)                0 d,  0 h,  0 min,  0.032 sec
 optimizer setup                ...        0 min,  0.000 sec (  0.228%)
 model hessian                  ...        0 min,  0.000 sec (  0.399%)
 ANC generation                 ...        0 min,  0.000 sec (  0.180%)
 coordinate transformation      ...        0 min,  0.000 sec (  0.119%)
 single point calculation       ...        0 min,  0.030 sec ( 95.155%)
 optimization log               ...        0 min,  0.000 sec (  1.180%)
 hessian update                 ...        0 min,  0.000 sec (  0.102%)
 rational function              ...        0 min,  0.000 sec (  1.035%)

================
 final structure:
================
5
 xtb: 6.2.2 (9d81278992624c895f80dd42a50cac0aa55982e2)
C         0.04101772974221   -0.33414943868706    0.01144945275909
N        -0.55939289224715    1.14213716452979   -0.02310279559590
C         0.66183603944141    0.96209458460150   -0.06279394396109
H        -0.03652986497629   -0.84918301955290    0.95761661052511
H        -0.10693001196019   -0.92089829089133   -0.88316932372721

 Bond Distances (Angstroems)
 ---------------------------
C1-N2=1.5941         C1-C3=1.4392         C1-H4=1.0800         C1-H5=1.0800         N2-C1=1.5941         N2-C3=1.2351         
C3-C1=1.4392         C3-N2=1.2351         H4-C1=1.0800         H5-C1=1.0800         
 C  H  Rav=1.0800 sigma=0.0000  Rmin=1.0800  Rmax=1.0800     2
 C  C  Rav=1.4392 sigma=0.0000  Rmin=1.4392  Rmax=1.4392     1
 N  C  Rav=1.4146 sigma=0.1795  Rmin=1.2351  Rmax=1.5941     2

 selected bond angles (degree)
 --------------------
C3-C1-N2= 47.72                H4-C1-N2=115.69                H4-C1-C3=120.38                H5-C1-N2=115.69                
H5-C1-C3=120.38                H5-C1-H4=117.18                C3-N2-C1= 59.55                N2-C3-C1= 72.73                

 selected dihedral angles (degree)
 ---------------------------------
C3-N2-C1-H4=108.72            C3-N2-C1-H5=251.28            N2-C3-C1-H4=261.59            N2-C3-C1-H5= 98.41            
           -------------------------------------------------
          |                Final Singlepoint                |
           -------------------------------------------------

          ...................................................
          :                      SETUP                      :
          :.................................................:
          :  # basis functions                  14          :
          :  # atomic orbitals                  14          :
          :  # shells                            8          :
          :  # electrons                        15          :
          :  max. iterations                   250          :
          :  Hamiltonian                  GFN2-xTB          :
          :  restarted?                      false          :
          :  GBSA solvation                  false          :
          :  PC potential                    false          :
          :  electronic temp.          300.0000000     K    :
          :  accuracy                    1.0000000          :
          :  -> integral cutoff          0.2500000E+02      :
          :  -> integral neglect         0.1000000E-07      :
          :  -> SCF convergence          0.1000000E-05 Eh   :
          :  -> wf. convergence          0.1000000E-03 e    :
          :  Broyden damping             0.4000000          :
          ...................................................

 iter      E             dE          RMSdq      gap      omega  full diag
   1     -8.1388396 -0.813884E+01  0.165E-04    3.47       0.0  T
   2     -8.1388396 -0.653699E-12  0.892E-05    3.47     501.3  T
   3     -8.1388396  0.986233E-11  0.508E-05    3.47     879.9  T

   *** convergence criteria satisfied after 3 iterations ***

         #    Occupation            Energy/Eh            Energy/eV
      -------------------------------------------------------------
         1        2.0000           -0.6993081             -19.0291
         2        2.0000           -0.6106315             -16.6161
         3        2.0000           -0.5539492             -15.0737
         4        2.0000           -0.5497112             -14.9584
         5        2.0000           -0.5225187             -14.2185
         6        2.0000           -0.4555337             -12.3957
         7        2.0000           -0.4320221             -11.7559
         8        1.0000           -0.3913077             -10.6480 (HOMO)
         9                         -0.2638433              -7.1795 (LUMO)
        10                         -0.1467250              -3.9926
        11                          0.0787171               2.1420
        12                          0.1893502               5.1525
        13                          0.2464387               6.7059
        14                          0.5892298              16.0338
      -------------------------------------------------------------
                  HL-Gap            0.1274644 Eh            3.4685 eV
             Fermi-level           -0.3696202 Eh          -10.0579 eV

 SCC (total)                   0 d,  0 h,  0 min,  0.002 sec
 SCC setup                      ...        0 min,  0.000 sec (  4.130%)
 Dispersion                     ...        0 min,  0.000 sec (  0.447%)
 integral evaluation            ...        0 min,  0.001 sec ( 34.855%)
 zeroth order Hamiltonian       ...        0 min,  0.000 sec (  0.604%)
 iterations                     ...        0 min,  0.000 sec ( 22.041%)
 molecular gradient             ...        0 min,  0.001 sec ( 35.205%)
 printout                       ...        0 min,  0.000 sec (  2.283%)

         :::::::::::::::::::::::::::::::::::::::::::::::::::::
         ::                     SUMMARY                     ::
         :::::::::::::::::::::::::::::::::::::::::::::::::::::
         :: total energy              -8.020208060584 Eh    ::
         :: gradient norm              0.000086795064 Eh/a0 ::
         :: HOMO-LUMO gap              3.468483137039 eV    ::
         ::.................................................::
         :: SCC energy                -8.138839641077 Eh    ::
         :: -> isotropic ES            0.004197109510 Eh    ::
         :: -> anisotropic ES          0.001124431811 Eh    ::
         :: -> anisotropic XC          0.010868817342 Eh    ::
         :: -> dispersion             -0.001459221198 Eh    ::
         :: repulsion energy           0.118631557710 Eh    ::
         :: add. restraining           0.000000000000 Eh    ::
         :::::::::::::::::::::::::::::::::::::::::::::::::::::

           ------------------------------------------------- 
          |                Numerical Hessian                |
           ------------------------------------------------- 
step length          :   0.00500
SCC accuracy         :   0.30000
Hessian scale factor :   1.00000
frozen atoms in %    :   0.00000    0
RMS gradient         :   0.00009
estimated CPU  time      0.00 min
estimated wall time      0.00 min

writing file <hessian>.

 projected vibrational frequencies (cm-1)
eigval :       -0.00    -0.00    -0.00     0.00     0.00     0.00
eigval :      677.07   782.06   927.40  1007.09  1227.62  1405.41
eigval :     1856.61  3062.40  3081.15
           -------------------------------------------------
          |                Property Printout                |
           -------------------------------------------------

    * Orbital Energies and Occupations

         #    Occupation            Energy/Eh            Energy/eV
      -------------------------------------------------------------
         1        2.0000           -0.6993081             -19.0291
         2        2.0000           -0.6106315             -16.6161
         3        2.0000           -0.5539492             -15.0737
         4        2.0000           -0.5497112             -14.9584
         5        2.0000           -0.5225187             -14.2185
         6        2.0000           -0.4555336             -12.3957
         7        2.0000           -0.4320220             -11.7559
         8        1.0000           -0.3913079             -10.6480 (HOMO)
         9                         -0.2638435              -7.1795 (LUMO)
        10                         -0.1467249              -3.9926
        11                          0.0787170               2.1420
        12                          0.1893502               5.1525
        13                          0.2464388               6.7059
        14                          0.5892297              16.0338
      -------------------------------------------------------------
                  HL-Gap            0.1274644 Eh            3.4685 eV
             Fermi-level           -0.3696203 Eh          -10.0579 eV

     #   Z        covCN         q      C6AA      α(0)
     1   6 C      3.716     0.016    20.427     6.457
     2   7 N      1.796    -0.175    25.571     7.491
     3   6 C      1.890     0.043    30.020     8.849
     4   1 H      0.926     0.058     2.224     2.332
     5   1 H      0.926     0.058     2.224     2.332

 Mol. C6AA /au·bohr⁶  :        324.448153
 Mol. C8AA /au·bohr⁸  :       7703.658279
 Mol. α(0) /au        :         27.460447


Wiberg/Mayer (AO) data.
largest (>0.10) Wiberg bond orders for each atom
          total WBO             WBO to atom ...
     1  C   3.710        C    3 0.996    H    5 0.973    H    4 0.973    N    2 0.769
     2  N   2.826        C    3 2.018    C    1 0.769
     3  C   3.015        N    2 2.018    C    1 0.996
     4  H   0.995        C    1 0.973
     5  H   0.995        C    1 0.973

MOs/occ written to file <molden.input>


molecular dipole:
                 x           y           z       tot (Debye)
 q only:        0.224      -0.503       0.011
   full:        0.320      -0.699       0.015       1.953
molecular quadrupole (traceless):
                xx          xy          yy          xz          yz          zz
 q only:       -0.130       0.783      -0.454      -0.003       0.010       0.584
  q+dip:       -0.284       1.982      -1.500       0.002       0.052       1.783
   full:       -0.904       1.929      -1.284       0.043       0.062       2.188

           -------------------------------------------------
          |                Geometry Summary                 |
           -------------------------------------------------

      molecular mass/u    :       40.0440565
   center of mass at/Å    :        0.0115386       0.5432896      -0.0216082
  moments of inertia/u·Å² :        0.1117135E+02   0.2245343E+02   0.3019920E+02
rotational constants/cm⁻¹ :        0.1509006E+01   0.7507822E+00   0.5582146E+00

 * 3 selected distances

     #   Z        #   Z                                     value/Å
     2   7 N      3   6 C                                 1.2350671 (max)
     1   6 C      4   1 H                                 1.0800488
     1   6 C      5   1 H                                 1.0800488 (min)

 * 2 distinct bonds (by element types)

   Z      Z             #   av. dist./Å        max./Å        min./Å
   1 H    6 C           2     1.0800488     1.0800488     1.0800488
Molecule has the following symmetry elements: (sigma) 
It seems to be the Cs point group
   6 C    7 N           1     1.2350671     1.2350671     1.2350671

           -------------------------------------------------
          |               Frequency Printout                |
           -------------------------------------------------
 projected vibrational frequencies (cm-1)
eigval :       -0.00    -0.00    -0.00     0.00     0.00     0.00
eigval :      677.07   782.06   927.40  1007.09  1227.62  1405.41
eigval :     1856.61  3062.40  3081.15
 reduced masses (amu)
   1:  8.87   2: 11.04   3: 11.67   4: 13.00   5: 12.43   6: 11.13   7: 12.80   8:  2.82
   9:  3.17  10:  3.41  11: 11.03  12:  2.39  13: 12.82  14:  1.42  15:  2.13
 IR intensities (amu)
   1:  0.27   2:  0.18   3:  0.07   4:  0.17   5:  0.17   6:  0.16   7:  0.71   8:  0.04
   9:  0.24  10:  0.20  11:  0.42  12:  0.13  13:  0.89  14:  0.11  15:  0.22
 Raman intensities (amu)
   1:  0.00   2:  0.00   3:  0.00   4:  0.00   5:  0.00   6:  0.00   7:  0.00   8:  0.00
   9:  0.00  10:  0.00  11:  0.00  12:  0.00  13:  0.00  14:  0.00  15:  0.00
 output can be read by thermo (or use thermo option).
 writing <g98.out> molden fake output.
 recommended (thermochemical) frequency scaling factor: 1.0
           -------------------------------------------------
          |             Thermodynamic Functions             |
           -------------------------------------------------

cs  symmetry found (for desy threshold:  0.10E+00) used in thermo

          ...................................................
          :                      SETUP                      :
          :.................................................:
          :  # frequencies                           9      :
          :  # imaginary freq.                       0      :
          :  linear?                             false      :
          :  only rotor calc.                    false      :
          :  symmetry                               cs      :
          :  rotational number                       1      :
          :  scaling factor                  1.0000000      :
          :  rotor cutoff                   50.0000000 cm⁻¹ :
          :  imag. cutoff                  -20.0000000 cm⁻¹ :
          :.................................................:

    mode    ω/cm⁻¹     T·S(HO)/kcal·mol⁻¹    T·S(FR)/kcal·mol⁻¹   T·S(vib)
   ------------------------------------------------------------------------
   ------------------------------------------------------------------------

   temp. (K)  partition function   enthalpy   heat capacity  entropy
                                   cal/mol     cal/K/mol   cal/K/mol   J/K/mol
 298.15  VIB   1.09                  196.940      2.700      0.830
         ROT  0.665E+04              888.752      2.981     20.473
         INT  0.724E+04             1085.693      5.681     21.303
         TR   0.245E+27             1481.254      4.968     36.973
         TOT                        2566.9465    10.6490    58.2763   243.8282

   temp. (K)  partition function   enthalpy   heat capacity  entropy
                                   cal/mol     cal/K/mol   cal/K/mol   J/K/mol
 120.00  VIB   1.00                    0.824      0.059      0.008
         ROT  0.170E+04              357.707      2.981     17.760
         INT  0.170E+04              358.531      3.040     17.768
         TR   0.626E+26              596.178      4.968     32.454
         TOT                         954.7088     8.0084    50.2217   210.1277

   temp. (K)  partition function   enthalpy   heat capacity  entropy
                                   cal/mol     cal/K/mol   cal/K/mol   J/K/mol
 100.00  VIB   1.00                    0.149      0.015      0.002
         ROT  0.129E+04              298.089      2.981     17.217
         INT  0.129E+04              298.238      2.996     17.218
         TR   0.476E+26              496.815      4.968     31.549
         TOT                         795.0526     7.9642    48.7668   204.0405

   temp. (K)  partition function   enthalpy   heat capacity  entropy
                                   cal/mol     cal/K/mol   cal/K/mol   J/K/mol
  80.00  VIB   1.00                    0.012      0.002      0.000
         ROT   924.                  238.471      2.981     16.552
         INT   924.                  238.483      2.983     16.552
         TR   0.341E+26              397.452      4.968     30.440
         TOT                         635.9351     7.9509    46.9921   196.6150

   temp. (K)  partition function   enthalpy   heat capacity  entropy
                                   cal/mol     cal/K/mol   cal/K/mol   J/K/mol
  60.00  VIB   1.00                    0.000      0.000     -0.000
         ROT   600.                  178.853      2.981     15.694
         INT   600.                  178.854      2.981     15.694
         TR   0.221E+26              298.089      4.968     29.012
         TOT                         476.9426     7.9491    44.7058   187.0493

   temp. (K)  partition function   enthalpy   heat capacity  entropy
                                   cal/mol     cal/K/mol   cal/K/mol   J/K/mol
  40.00  VIB   1.00                    0.000      0.000     -0.000
         ROT   327.                  119.236      2.981     14.485
         INT   327.                  119.236      2.981     14.485
         TR   0.120E+26              198.726      4.968     26.999
         TOT                         317.9616     7.9490    41.4837   173.5680

   temp. (K)  partition function   enthalpy   heat capacity  entropy
                                   cal/mol     cal/K/mol   cal/K/mol   J/K/mol
  20.00  VIB   1.00                    0.000      0.000     -0.000
         ROT   116.                   59.618      2.981     12.419
         INT   116.                   59.618      2.981     12.419
         TR   0.426E+25               99.363      4.968     23.557
         TOT                         158.9808     7.9490    35.9755   150.5216

   temp. (K)  partition function   enthalpy   heat capacity  entropy
                                   cal/mol     cal/K/mol   cal/K/mol   J/K/mol
  10.00  VIB   1.00                    0.000      0.000     -0.000
         ROT   40.8                   29.809      2.981     10.353
         INT   40.8                   29.809      2.981     10.353
         TR   0.151E+25               49.681      4.968     20.115
         TOT                          79.4904     7.9490    30.4673   127.4752

       T/K    H(0)-H(T)+PV         H(T)/Eh          T*S/Eh         G(T)/Eh
   ------------------------------------------------------------------------
    298.15    0.409069E-02    0.360461E-01    0.276890E-01    0.835714E-02
    120.00    0.152143E-02    0.334768E-01    0.960401E-02    0.238728E-01
    100.00    0.126700E-02    0.332224E-01    0.777149E-02    0.254509E-01
     80.00    0.101343E-02    0.329688E-01    0.599094E-02    0.269779E-01
     60.00    0.760056E-03    0.327155E-01    0.427460E-02    0.284409E-01
     40.00    0.506704E-03    0.324621E-01    0.264434E-02    0.298178E-01
     20.00    0.253352E-03    0.322088E-01    0.114661E-02    0.310622E-01
     10.00    0.126676E-03    0.320821E-01    0.485527E-03    0.315966E-01 (used)
   ------------------------------------------------------------------------

         :::::::::::::::::::::::::::::::::::::::::::::::::::::
         ::                  THERMODYNAMIC                  ::
         :::::::::::::::::::::::::::::::::::::::::::::::::::::
         :: total free energy          -7.988611493772 Eh   ::
         ::.................................................::
         :: total energy               -8.020208060355 Eh   ::
         :: zero point energy           0.031955418050 Eh   ::
         :: G(RRHO) w/o ZPVE           -0.000358851467 Eh   ::
         :: G(RRHO) contrib.            0.031596566582 Eh   ::
         :::::::::::::::::::::::::::::::::::::::::::::::::::::

optimized geometry written to: xtbopt.xyz


           -------------------------------------------------
          | TOTAL ENERGY               -8.020208060355 Eh   |
          | TOTAL ENTHALPY             -7.988125966289 Eh   |
          | TOTAL FREE ENERGY          -7.988611493772 Eh   |
          | GRADIENT NORM               0.000086452885 Eh/α |
          | HOMO-LUMO GAP               3.468484122868 eV   |
           -------------------------------------------------

------------------------------------------------------------------------
 * finished run on 2020/05/12 at 11:44:45.097     
------------------------------------------------------------------------
 total:
 * wall-time:     0 d,  0 h,  0 min,  0.111 sec
 *  cpu-time:     0 d,  0 h,  0 min,  0.110 sec
 * ratio c/w:     0.996 speedup
 SCF:
 * wall-time:     0 d,  0 h,  0 min,  0.004 sec
 *  cpu-time:     0 d,  0 h,  0 min,  0.004 sec
 * ratio c/w:     0.995 speedup
 ANC optimizer:
 * wall-time:     0 d,  0 h,  0 min,  0.034 sec
 *  cpu-time:     0 d,  0 h,  0 min,  0.034 sec
 * ratio c/w:     0.998 speedup
 numerical hessian:
 * wall-time:     0 d,  0 h,  0 min,  0.056 sec
 *  cpu-time:     0 d,  0 h,  0 min,  0.056 sec
 * ratio c/w:     0.994 speedup

