$hessian                                                                        
        0.1544065530   0.1252649567   0.0092462450  -0.0377554272   0.0293570902
       -0.0004610871  -0.0549694459  -0.1268286568   0.0060712337  -0.0289379923
       -0.0088475415   0.0149800275  -0.0327436876  -0.0189458486  -0.0298364192
        0.1252649567   0.5581938297  -0.0060912001   0.0918807751  -0.1057082362
       -0.0001937346  -0.1785279297  -0.2579203828   0.0158513592  -0.0141263620
       -0.0888762409   0.1030083102  -0.0244914401  -0.1056889699  -0.1125747347
        0.0092462450  -0.0060912001   0.5239846076  -0.0029446110   0.0021400253
       -0.0202748973   0.0081599052   0.0139346186  -0.0260200200   0.0199457412
        0.1037213839  -0.2492089460  -0.0344072803  -0.1137048277  -0.2284807443
       -0.0377554272   0.0918807751  -0.0029446110   0.8127889310  -0.1845169117
       -0.0228763319  -0.7836981644   0.1075149227   0.0253623572   0.0039297285
       -0.0068951881   0.0024612890   0.0047349320  -0.0079835981  -0.0020027033
        0.0293570902  -0.1057082362   0.0021400253  -0.1845169117   0.1633878575
        0.0018158736   0.1327804045  -0.0287506864  -0.0044754083   0.0106869001
       -0.0139499724   0.0016156042   0.0116925169  -0.0149789624  -0.0010960948
       -0.0004610871  -0.0001937346  -0.0202748973  -0.0228763319   0.0018158736
        0.0285570580   0.0242955105  -0.0035577747  -0.0143282236  -0.0144332749
        0.0118335424   0.0029927662   0.0134751834  -0.0098979067   0.0030532968
       -0.0549694459  -0.1785279297   0.0081599052  -0.7836981644   0.1327804045
        0.0242955105   0.8468667229   0.0411466732  -0.0327148783  -0.0035604347
        0.0027073902  -0.0011694423  -0.0046386780   0.0018934618   0.0014289049
       -0.1268286568  -0.2579203828   0.0139346186   0.1075149227  -0.0287506864
       -0.0035577747   0.0411466732   0.3260163769  -0.0128463296  -0.0100945717
       -0.0189851845   0.0054652099  -0.0117383675  -0.0203601232  -0.0029957243
        0.0060712337   0.0158513592  -0.0260200200   0.0253623572  -0.0044754083
       -0.0143282236  -0.0327148783  -0.0128463296   0.0376343782   0.0169303820
        0.0142609791   0.0000862509  -0.0156490947  -0.0127906005   0.0026276145
       -0.0289379923  -0.0141263620   0.0199457412   0.0039297285   0.0106869001
       -0.0144332749  -0.0035604347  -0.0100945717   0.0169303820   0.0253349857
        0.0131572666  -0.0183262245   0.0032337127   0.0003767670  -0.0041166238
       -0.0088475415  -0.0888762409   0.1037213839  -0.0068951881  -0.0139499724
        0.0118335424   0.0027073902  -0.0189851845   0.0142609791   0.0131572666
        0.1144576280  -0.1187404530  -0.0001219272   0.0073537699  -0.0110754524
        0.0149800275   0.1030083102  -0.2492089460   0.0024612890   0.0016156042
        0.0029927662  -0.0011694423   0.0054652099   0.0000862509  -0.0183262245
       -0.1187404530   0.2696245969   0.0020543503   0.0086513287  -0.0234946680
       -0.0327436876  -0.0244914401  -0.0344072803   0.0047349320   0.0116925169
        0.0134751834  -0.0046386780  -0.0117383675  -0.0156490947   0.0032337127
       -0.0001219272   0.0020543503   0.0294137208   0.0246592179   0.0345268413
       -0.0189458486  -0.1056889699  -0.1137048277  -0.0079835981  -0.0149789624
       -0.0098979067   0.0018934618  -0.0203601232  -0.0127906005   0.0003767670
        0.0073537699   0.0086513287   0.0246592179   0.1336742856   0.1277420062
       -0.0298364192  -0.1125747347  -0.2284807443  -0.0020027033  -0.0010960948
        0.0030532968   0.0014289049  -0.0029957243   0.0026276145  -0.0041166238
       -0.0110754524  -0.0234946680   0.0345268413   0.1277420062   0.2462945011
