$hessian                                                                        
        0.8194270194   0.0790307145   0.0855130892  -0.2518021672   0.0894880678
        0.0103834882  -0.5244628594  -0.1910175231  -0.0983076211  -0.0332887729
        0.0067886752  -0.0005764942  -0.0098732198   0.0157100656   0.0029875380
        0.0790307145   0.2672113734   0.0801019926   0.1344717247  -0.1349505521
       -0.0214074990  -0.2407577090  -0.1193310473  -0.0517085861  -0.0105296889
        0.0090695839   0.0011734084   0.0377849587  -0.0219993578  -0.0081593160
        0.0855130892   0.0801019926   0.0586470778   0.0244003296  -0.0249623791
       -0.0376525516  -0.1136250216  -0.0478161014  -0.0356329793  -0.0060716761
        0.0025734421   0.0028226782   0.0097832790  -0.0098969542   0.0118157748
       -0.2518021672   0.1344717247   0.0244003296   0.6387096431  -0.0173200497
        0.0387253526  -0.1512013500  -0.0124806261  -0.0160470597  -0.1924974121
       -0.1230660111  -0.0516332502  -0.0432087138   0.0183949622   0.0045546278
        0.0894880678  -0.1349505521  -0.0249623791  -0.0173200497   0.4936221780
        0.1272877928   0.0252387590   0.0220343294   0.0069422075  -0.1197954833
       -0.1344116020  -0.0441298936   0.0223887063  -0.2462943533  -0.0651377277
        0.0103834882  -0.0214074990  -0.0376525516   0.0387253526   0.1272877928
        0.1197684989  -0.0043653319   0.0039983853   0.0069627612  -0.0505379594
       -0.0443934083  -0.0401396054   0.0057944505  -0.0654852708  -0.0489391031
       -0.5244628594  -0.2407577090  -0.1136250216  -0.1512013500   0.0252387590
       -0.0043653319   0.6832277465   0.2067348318   0.1158813177  -0.0064381502
        0.0044330503   0.0005732990  -0.0011253869   0.0043510679   0.0015357368
       -0.1910175231  -0.1193310473  -0.0478161014  -0.0124806261   0.0220343294
        0.0039983853   0.2067348318   0.0919841045   0.0421777517   0.0002845065
        0.0008191072  -0.0005871830  -0.0035211891   0.0044935062   0.0022271475
       -0.0983076211  -0.0517085861  -0.0356329793  -0.0160470597   0.0069422075
        0.0069627612   0.1158813177   0.0421777517   0.0289172505  -0.0006381696
       -0.0002638334   0.0026404498  -0.0008884673   0.0028524602  -0.0028874823
       -0.0332887729  -0.0105296889  -0.0060716761  -0.1924974121  -0.1197954833
       -0.0505379594  -0.0064381502   0.0002845065  -0.0006381696   0.2303782574
        0.1298451115   0.0576306231   0.0018460777   0.0001955543  -0.0003828179
        0.0067886752   0.0090695839   0.0025734421  -0.1230660111  -0.1344116020
       -0.0443934083   0.0044330503   0.0008191072  -0.0002638334   0.1298451115
        0.1400429244   0.0506274464  -0.0180008259  -0.0155200135  -0.0085436468
       -0.0005764942   0.0011734084   0.0028226782  -0.0516332502  -0.0441298936
       -0.0401396054   0.0005732990  -0.0005871830   0.0026404498   0.0576306231
        0.0506274464   0.0298685965  -0.0059941776  -0.0070837782   0.0048078809
       -0.0098732198   0.0377849587   0.0097832790  -0.0432087138   0.0223887063
        0.0057944505  -0.0011253869  -0.0035211891  -0.0008884673   0.0018460777
       -0.0180008259  -0.0059941776   0.0523612429  -0.0386516499  -0.0086950847
        0.0157100656  -0.0219993578  -0.0098969542   0.0183949622  -0.2462943533
       -0.0654852708   0.0043510679   0.0044935062   0.0028524602   0.0001955543
       -0.0155200135  -0.0070837782  -0.0386516499   0.2793202183   0.0796135429
        0.0029875380  -0.0081593160   0.0118157748   0.0045546278  -0.0651377277
       -0.0489391031   0.0015357368   0.0022271475  -0.0028874823  -0.0003828179
       -0.0085436468   0.0048078809  -0.0086950847   0.0796135429   0.0352029297
