5
 energy: -8.724606547980 gnorm: 0.267666076435 xtb: 6.2.2 (9d81278992624c895f80dd42a50cac0aa55982e2)
N         0.70112500000000   -0.53548700000000    0.57578100000000
C        -0.63191600000000   -0.03164900000000    0.27788200000000
N         1.56176300000000   -0.08427700000000   -0.43500100000000
H        -0.99172200000000   -0.42830700000000   -0.69597400000000
H        -0.63924900000000    1.07972000000000    0.27731200000000
5
 energy: -8.781685645615 gnorm: 0.147257604976 xtb: 6.2.2 (9d81278992624c895f80dd42a50cac0aa55982e2)
N         0.71698580247335   -0.47798519085046    0.48093948580569
C        -0.58473250705401   -0.01313722287631    0.23211291795687
N         1.57793758983145   -0.13801824964667   -0.35758724924880
H        -1.03328005764442   -0.44777574504293   -0.66975209814424
H        -0.67690982760637    1.07691640841638    0.31428694363047
5
 energy: -8.770824226852 gnorm: 0.370026844433 xtb: 6.2.2 (9d81278992624c895f80dd42a50cac0aa55982e2)
N         0.74909800216622   -0.42713897090416    0.39052473334954
C        -0.56312068053581   -0.00858438584023    0.21723257490614
N         1.55401154182923   -0.18156317882023   -0.28144988350433
H        -1.04493181253204   -0.43980639644372   -0.64620301813439
H        -0.69505605092760    1.05709293200834    0.31989559338305
5
 energy: -8.793606290511 gnorm: 0.057196191444 xtb: 6.2.2 (9d81278992624c895f80dd42a50cac0aa55982e2)
N         0.72670586168565   -0.42736998400221    0.39898361745412
C        -0.58093565989933    0.00234246693710    0.20675485667012
N         1.66662910640300   -0.19089055088740   -0.30777311162860
H        -1.08409398756033   -0.45313292938902   -0.64018846626888
H        -0.72830432062899    1.06905099734153    0.34222310377324
5
 energy: -8.794852828428 gnorm: 0.025150207876 xtb: 6.2.2 (9d81278992624c895f80dd42a50cac0aa55982e2)
N         0.74204790493419   -0.42897598648336    0.39583887905767
C        -0.56192587249448    0.01242116044777    0.18425819351055
N         1.67523510065781   -0.20052523474863   -0.29586749232669
H        -1.10690126182267   -0.45810908792218   -0.63687894100213
H        -0.74845487127484    1.07518914870640    0.35264936076060
5
 energy: -8.795238455686 gnorm: 0.011675475801 xtb: 6.2.2 (9d81278992624c895f80dd42a50cac0aa55982e2)
N         0.74335929000396   -0.42645589579175    0.39077158059363
C        -0.56008730573605    0.01893974140793    0.17352558879633
N         1.66985591411313   -0.20229888908750   -0.29034400387986
H        -1.10483952254224   -0.45660225972058   -0.62817180953342
H        -0.74828737583879    1.06641730319189    0.35421864402332
5
 energy: -8.795353188930 gnorm: 0.007409452940 xtb: 6.2.2 (9d81278992624c895f80dd42a50cac0aa55982e2)
N         0.74396783349697   -0.42523154925123    0.38411707078634
C        -0.55795099463617    0.02493473267798    0.16365192057939
N         1.68261823663096   -0.20519313323816   -0.28495657640576
H        -1.11517777938495   -0.46245557118875   -0.62331556378624
H        -0.75345629610680    1.06794552100015    0.36050314882627
5
 energy: -8.796579711758 gnorm: 0.025357137499 xtb: 6.2.2 (9d81278992624c895f80dd42a50cac0aa55982e2)
N         0.73808816919683   -0.44972292111004    0.35605225129993
C        -0.55141733929493    0.04213485699277    0.13770588185498
N         1.71338521622131   -0.17890244166499   -0.25443942145359
H        -1.15967294124809   -0.48616844667283   -0.59573506155314
H        -0.74038210487510    1.07265895245508    0.35641634985182
5
 energy: -8.795949849492 gnorm: 0.154383639903 xtb: 6.2.2 (9d81278992624c895f80dd42a50cac0aa55982e2)
N         0.70914277144718   -0.55680020639459    0.24153381836987
C        -0.53463633125365    0.08614285349215    0.08440044105808
N         1.81082717503202   -0.06795593772514   -0.14157900935320
H        -1.30019969198263   -0.55881292030726   -0.49420984918905
H        -0.68513292324291    1.09742621093483    0.30985459911429
5
 energy: -8.804905394908 gnorm: 0.052426619113 xtb: 6.2.2 (9d81278992624c895f80dd42a50cac0aa55982e2)
N         0.70891551702197   -0.51308526889947    0.27372121748314
C        -0.53780968231375    0.05259122005265    0.11497553413289
N         1.75175155232352   -0.11493417338151   -0.18536531069881
H        -1.21223755321716   -0.51642590972454   -0.52089329239588
H        -0.71061883381458    1.09185413195288    0.31756185147866
5
 energy: -8.810627202271 gnorm: 0.047377337439 xtb: 6.2.2 (9d81278992624c895f80dd42a50cac0aa55982e2)
N         0.68351424828470   -0.52956428711684    0.21035202409133
C        -0.52095893919047    0.04601950020793    0.10244092176344
N         1.76483774645241   -0.09374966381271   -0.14038549609498
H        -1.22486038796386   -0.52100236425272   -0.46818428949539
H        -0.70253166758279    1.09829681497434    0.29577683973560
5
 energy: -8.813747250904 gnorm: 0.114499299106 xtb: 6.2.2 (9d81278992624c895f80dd42a50cac0aa55982e2)
N         0.65481347624660   -0.52799887113643    0.07029508154132
C        -0.46751599550167    0.04483862976148    0.02139913380892
N         1.82815022073882   -0.06104931555680   -0.01191023007144
H        -1.33708138714648   -0.54493662630259   -0.35792438926507
H        -0.67836531433727    1.08914618323433    0.27814040398626
5
 energy: -8.817798665455 gnorm: 0.033986764866 xtb: 6.2.2 (9d81278992624c895f80dd42a50cac0aa55982e2)
N         0.67497753004840   -0.52051076188697    0.10031705419604
C        -0.49230737507668    0.04270346151920    0.04539794314598
N         1.80275274450700   -0.07859264816963   -0.04087322189487
H        -1.29799277306345   -0.52845600631724   -0.38454204010313
H        -0.68742912641526    1.08485595485463    0.27970026465599
5
 energy: -8.819419694538 gnorm: 0.023876755580 xtb: 6.2.2 (9d81278992624c895f80dd42a50cac0aa55982e2)
N         0.68043475715325   -0.51813960403300    0.06074124515656
C        -0.49672806542420    0.04738887241941    0.02827869180481
N         1.81439855713384   -0.08096575629963   -0.01042583848344
H        -1.30959389283795   -0.53426700658222   -0.35838089225020
H        -0.68851035602494    1.08598349449543    0.27978679377227
5
 energy: -8.821316636898 gnorm: 0.013835997434 xtb: 6.2.2 (9d81278992624c895f80dd42a50cac0aa55982e2)
N         0.68480420244934   -0.50510442008567   -0.01843455979298
C        -0.49564016774426    0.05095817345737   -0.01633854585352
N         1.81850234071143   -0.07454314662203    0.06046135236854
H        -1.34409588720627   -0.55512561589084   -0.30842161776594
H        -0.66356948821024    1.08381500914116    0.28273337104391
5
 energy: -8.821696294442 gnorm: 0.013155145780 xtb: 6.2.2 (9d81278992624c895f80dd42a50cac0aa55982e2)
N         0.68459894974357   -0.50132766785085   -0.05620083921764
C        -0.49991680895047    0.04649500629836   -0.01899915674349
N         1.81220461152179   -0.07071825525839    0.08919168839068
H        -1.34502617819011   -0.55617457563415   -0.28780253271790
H        -0.65185957412478    1.08172549244504    0.27381084028834
5
 energy: -8.821814247224 gnorm: 0.008386825774 xtb: 6.2.2 (9d81278992624c895f80dd42a50cac0aa55982e2)
N         0.68970690263692   -0.49695093679064   -0.07654571126166
C        -0.49529095539213    0.04987487218024   -0.02870539810851
N         1.80530532554097   -0.07678073671902    0.10589942219459
H        -1.34452486191527   -0.55996400507560   -0.27793147906415
H        -0.65519541087050    1.08382080640502    0.27728316623974
5
 energy: -8.821840164850 gnorm: 0.006545380396 xtb: 6.2.2 (9d81278992624c895f80dd42a50cac0aa55982e2)
N         0.69152837882027   -0.49308710711220   -0.09717081931565
C        -0.49483093750331    0.05127848754264   -0.03346907583861
N         1.81054727403770   -0.07992000437212    0.12117526877870
H        -1.35012763674505   -0.56170742631345   -0.26749402603469
H        -0.65711607860961    1.08343605025513    0.27695865241024
5
 energy: -8.821877775780 gnorm: 0.003180070085 xtb: 6.2.2 (9d81278992624c895f80dd42a50cac0aa55982e2)
N         0.69020025354369   -0.49193868567259   -0.08962550500299
C        -0.49690873259837    0.04999084080485   -0.02753039244335
N         1.80951761439967   -0.07992976914118    0.11431381353299
H        -1.34706516949147   -0.56036335789960   -0.27402005417701
H        -0.65574296585353    1.08224097190852    0.27686213809036
5
 energy: -8.821892232924 gnorm: 0.002379728727 xtb: 6.2.2 (9d81278992624c895f80dd42a50cac0aa55982e2)
N         0.68963026972648   -0.49019384821143   -0.09039798078475
C        -0.49700950713747    0.05139296118708   -0.02588280178234
N         1.80999505518130   -0.08268221388353    0.11313910238223
H        -1.34460666055347   -0.56172104897321   -0.27602241595621
H        -0.65800815721684    1.08320414988108    0.27916409614106
5
 energy: -8.821907859096 gnorm: 0.000648590968 xtb: 6.2.2 (9d81278992624c895f80dd42a50cac0aa55982e2)
N         0.68926825761142   -0.48490889359589   -0.09521973251312
C        -0.49724579473671    0.05388828017286   -0.02238142234739
N         1.81278290315601   -0.08941892817045    0.11327048116585
H        -1.34159800112537   -0.56396410287785   -0.27921647117190
H        -0.66320636490535    1.08440364447132    0.28354714486656
5
 energy: -8.821908147268 gnorm: 0.000209888327 xtb: 6.2.2 (9d81278992624c895f80dd42a50cac0aa55982e2)
N         0.68941095528265   -0.48496074600945   -0.09544580894475
C        -0.49719832204135    0.05365921029164   -0.02153714456020
N         1.81319652156748   -0.08950180380607    0.11324472715722
H        -1.34190552732018   -0.56405533022976   -0.27960485309431
H        -0.66350262748859    1.08485866975364    0.28334307944204
