$hessian                                                                        
        0.3981620830  -0.1933963521   0.0158950947  -0.0758426192   0.0526150051
        0.0868102864  -0.0640825378   0.0253973939   0.0116392877  -0.0135733588
        0.0770347450  -0.0016009898  -0.2446635672   0.0383492082  -0.1127436789
       -0.1933963521   0.3289354056   0.0221610742   0.0563380544  -0.0105507940
       -0.0131734098   0.0389009785  -0.0506467400  -0.0229807530   0.0562814677
       -0.2661011864   0.0066584443   0.0418758514  -0.0016366853   0.0073346443
        0.0158950947   0.0221610742   0.0936170389   0.0782477305  -0.0056066854
       -0.1094168484  -0.0196109321   0.0032272164   0.0031542830  -0.0008268014
       -0.0268691226   0.0232346432  -0.0737050917   0.0070875174  -0.0105891167
       -0.0758426192   0.0563380544   0.0782477305   0.1436422532  -0.0162639562
       -0.0670003639  -0.0362412241   0.0657815906  -0.0214922239  -0.0284605797
       -0.0704690940   0.0458112327  -0.0030978302  -0.0353865949  -0.0355663754
        0.0526150051  -0.0105507940  -0.0056066854  -0.0162639562   0.1449747067
       -0.0962053358   0.0697534088  -0.0588634761   0.0738427167  -0.0695784573
       -0.0604953974   0.0617418771  -0.0365260004  -0.0150650392  -0.0337725726
        0.0868102864  -0.0131734098  -0.1094168484  -0.0670003639  -0.0962053358
        0.4455113503  -0.0307589538   0.0812481653  -0.0993920600   0.0271499982
        0.0386311643  -0.0837460533  -0.0162009669  -0.0105005840  -0.1529563885
       -0.0640825378   0.0389009785  -0.0196109321  -0.0362412241   0.0697534088
       -0.0307589538   0.4061758168  -0.1902452722  -0.0059939278  -0.2824141179
        0.0018667057   0.0230961200  -0.0234379370   0.0797241792   0.0332676939
        0.0253973939  -0.0506467400   0.0032272164   0.0657815906  -0.0588634761
        0.0812481653  -0.1902452722   0.3180829673   0.0397294170   0.0243838695
        0.0026764591  -0.0025489911   0.0746824183  -0.2112492104  -0.1216558077
        0.0116392877  -0.0229807530   0.0031542830  -0.0214922239   0.0738427167
       -0.0993920600  -0.0059939278   0.0397294170   0.0949812135  -0.0092248839
       -0.0070632666   0.0229434586   0.0250717480  -0.0835281141  -0.0216868950
       -0.0135733588   0.0562814677  -0.0008268014  -0.0284605797  -0.0695784573
        0.0271499982  -0.2824141179   0.0243838695  -0.0092248839   0.3539635605
        0.0482408548  -0.0242336730  -0.0295155041  -0.0593277347   0.0071353600
        0.0770347450  -0.2661011864  -0.0268691226  -0.0704690940  -0.0604953974
        0.0386311643   0.0018667057   0.0026764591  -0.0070632666   0.0482408548
        0.3747882615  -0.0160587205  -0.0566732114  -0.0508681368   0.0113599455
       -0.0016009898   0.0066584443   0.0232346432   0.0458112327   0.0617418771
       -0.0837460533   0.0230961200  -0.0025489911   0.0229434586  -0.0242336730
       -0.0160587205   0.0655539341  -0.0430726899  -0.0497926097  -0.0279859826
       -0.2446635672   0.0418758514  -0.0737050917  -0.0030978302  -0.0365260004
       -0.0162009669  -0.0234379370   0.0746824183   0.0250717480  -0.0295155041
       -0.0566732114  -0.0430726899   0.3007148385  -0.0233590579   0.1079070005
        0.0383492082  -0.0016366853   0.0070875174  -0.0353865949  -0.0150650392
       -0.0105005840   0.0797241792  -0.2112492104  -0.0835281141  -0.0593277347
       -0.0508681368  -0.0497926097  -0.0233590579   0.2788190717   0.1367337905
       -0.1127436789   0.0073346443  -0.0105891167  -0.0355663754  -0.0337725726
       -0.1529563885   0.0332676939  -0.1216558077  -0.0216868950   0.0071353600
        0.0113599455  -0.0279859826   0.1079070005   0.1367337905   0.2132183828
