 Entering Gaussian System, Link 0=g16
 Initial command:
 /applis/site/cecic/gaussian16/B.01/nehalem/g16/l1.exe "/bettik/tinaccil/g16/12753950_S/Gau-103497.inp" -scrdir="/bettik/tinaccil/g16/12753950_S/"
 Entering Link 1 = /applis/site/cecic/gaussian16/B.01/nehalem/g16/l1.exe PID=    103503.
  
 Copyright (c) 1988-2017, Gaussian, Inc.  All Rights Reserved.
  
 This is part of the Gaussian(R) 16 program.  It is based on
 the Gaussian(R) 09 system (copyright 2009, Gaussian, Inc.),
 the Gaussian(R) 03 system (copyright 2003, Gaussian, Inc.),
 the Gaussian(R) 98 system (copyright 1998, Gaussian, Inc.),
 the Gaussian(R) 94 system (copyright 1995, Gaussian, Inc.),
 the Gaussian 92(TM) system (copyright 1992, Gaussian, Inc.),
 the Gaussian 90(TM) system (copyright 1990, Gaussian, Inc.),
 the Gaussian 88(TM) system (copyright 1988, Gaussian, Inc.),
 the Gaussian 86(TM) system (copyright 1986, Carnegie Mellon
 University), and the Gaussian 82(TM) system (copyright 1983,
 Carnegie Mellon University). Gaussian is a federally registered
 trademark of Gaussian, Inc.
  
 This software contains proprietary and confidential information,
 including trade secrets, belonging to Gaussian, Inc.
  
 This software is provided under written license and may be
 used, copied, transmitted, or stored only in accord with that
 written license.
  
 The following legend is applicable only to US Government
 contracts under FAR:
  
                    RESTRICTED RIGHTS LEGEND
  
 Use, reproduction and disclosure by the US Government is
 subject to restrictions as set forth in subparagraphs (a)
 and (c) of the Commercial Computer Software - Restricted
 Rights clause in FAR 52.227-19.
  
 Gaussian, Inc.
 340 Quinnipiac St., Bldg. 40, Wallingford CT 06492
  
  
 ---------------------------------------------------------------
 Warning -- This program may not be used in any manner that
 competes with the business of Gaussian, Inc. or will provide
 assistance to any competitor of Gaussian, Inc.  The licensee
 of this program is prohibited from giving any competitor of
 Gaussian, Inc. access to this program.  By using this program,
 the user acknowledges that Gaussian, Inc. is engaged in the
 business of creating and licensing software in the field of
 computational chemistry and represents and warrants to the
 licensee that it is not a competitor of Gaussian, Inc. and that
 it will not use this program in any manner prohibited above.
 ---------------------------------------------------------------
  

 Cite this work as:
 Gaussian 16, Revision B.01,
 M. J. Frisch, G. W. Trucks, H. B. Schlegel, G. E. Scuseria, 
 M. A. Robb, J. R. Cheeseman, G. Scalmani, V. Barone, 
 G. A. Petersson, H. Nakatsuji, X. Li, M. Caricato, A. V. Marenich, 
 J. Bloino, B. G. Janesko, R. Gomperts, B. Mennucci, H. P. Hratchian, 
 J. V. Ortiz, A. F. Izmaylov, J. L. Sonnenberg, D. Williams-Young, 
 F. Ding, F. Lipparini, F. Egidi, J. Goings, B. Peng, A. Petrone, 
 T. Henderson, D. Ranasinghe, V. G. Zakrzewski, J. Gao, N. Rega, 
 G. Zheng, W. Liang, M. Hada, M. Ehara, K. Toyota, R. Fukuda, 
 J. Hasegawa, M. Ishida, T. Nakajima, Y. Honda, O. Kitao, H. Nakai, 
 T. Vreven, K. Throssell, J. A. Montgomery, Jr., J. E. Peralta, 
 F. Ogliaro, M. J. Bearpark, J. J. Heyd, E. N. Brothers, K. N. Kudin, 
 V. N. Staroverov, T. A. Keith, R. Kobayashi, J. Normand, 
 K. Raghavachari, A. P. Rendell, J. C. Burant, S. S. Iyengar, 
 J. Tomasi, M. Cossi, J. M. Millam, M. Klene, C. Adamo, R. Cammi, 
 J. W. Ochterski, R. L. Martin, K. Morokuma, O. Farkas, 
 J. B. Foresman, and D. J. Fox, Gaussian, Inc., Wallingford CT, 2016.
 
 ******************************************
 Gaussian 16:  ES64L-G16RevB.01 20-Dec-2017
                 5-Oct-2020 
 ******************************************
 %nosave
 %nproc=8
 Will use up to    8 processors via shared memory.
 %mem=2gb
 %chk=input
 ------------------------
 #P ROCCSD(T)/aug-cc-pvtz
 ------------------------
 1/38=1,172=1/1;
 2/12=2,17=6,18=5,40=1/2;
 3/5=16,6=1,7=10,11=2,25=1,30=1,116=101/1,2,3;
 4//1;
 5/5=2,38=5/2;
 8/5=-1,6=4,9=120000,10=1/1,4;
 9/5=7,14=2/13;
 6/7=2,8=2,9=2,10=2/1;
 99/5=1,9=1/99;
 Leave Link    1 at Mon Oct  5 21:27:05 2020, MaxMem=   268435456 cpu:               0.7 elap:               0.2
 (Enter /applis/site/cecic/gaussian16/B.01/nehalem/g16/l101.exe)
 -----
 Title
 -----
 Symbolic Z-matrix:
 Charge =  0 Multiplicity = 3
 S
 
 ITRead=  0
 MicOpt= -1
 NAtoms=      1 NQM=        1 NQMF=       0 NMMI=      0 NMMIF=      0
                NMic=       0 NMicF=      0.
                    Isotopes and Nuclear Properties:
 (Nuclear quadrupole moments (NQMom) in fm**2, nuclear magnetic moments (NMagM)
  in nuclear magnetons)

  Atom         1
 IAtWgt=          32
 AtmWgt=  31.9720718
 NucSpn=           0
 AtZEff=  -0.0000000
 NQMom=    0.0000000
 NMagM=    0.0000000
 AtZNuc=  16.0000000
 Leave Link  101 at Mon Oct  5 21:27:05 2020, MaxMem=   268435456 cpu:               1.8 elap:               0.3
 (Enter /applis/site/cecic/gaussian16/B.01/nehalem/g16/l202.exe)
                          Input orientation:                          
 ---------------------------------------------------------------------
 Center     Atomic      Atomic             Coordinates (Angstroms)
 Number     Number       Type             X           Y           Z
 ---------------------------------------------------------------------
      1         16           0        0.000000    0.000000    0.000000
 ---------------------------------------------------------------------
 Stoichiometry    S(3)
 Framework group  OH[O(S)]
 Deg. of freedom     0
 Full point group                 OH      NOp  48
 Largest Abelian subgroup         D2H     NOp   8
 Largest concise Abelian subgroup C1      NOp   1
                         Standard orientation:                         
 ---------------------------------------------------------------------
 Center     Atomic      Atomic             Coordinates (Angstroms)
 Number     Number       Type             X           Y           Z
 ---------------------------------------------------------------------
      1         16           0        0.000000    0.000000    0.000000
 ---------------------------------------------------------------------
 Leave Link  202 at Mon Oct  5 21:27:05 2020, MaxMem=   268435456 cpu:               0.2 elap:               0.1
 (Enter /applis/site/cecic/gaussian16/B.01/nehalem/g16/l301.exe)
 Standard basis: Aug-CC-pVTZ (5D, 7F)
 Ernie: Thresh=  0.10000D-02 Tol=  0.10000D-05 Strict=F.
 Ernie:  13 primitive shells out of 64 were deleted.
 There are    15 symmetry adapted cartesian basis functions of AG  symmetry.
 There are     3 symmetry adapted cartesian basis functions of B1G symmetry.
 There are     3 symmetry adapted cartesian basis functions of B2G symmetry.
 There are     3 symmetry adapted cartesian basis functions of B3G symmetry.
 There are     2 symmetry adapted cartesian basis functions of AU  symmetry.
 There are    11 symmetry adapted cartesian basis functions of B1U symmetry.
 There are    11 symmetry adapted cartesian basis functions of B2U symmetry.
 There are    11 symmetry adapted cartesian basis functions of B3U symmetry.
 There are    12 symmetry adapted basis functions of AG  symmetry.
 There are     3 symmetry adapted basis functions of B1G symmetry.
 There are     3 symmetry adapted basis functions of B2G symmetry.
 There are     3 symmetry adapted basis functions of B3G symmetry.
 There are     2 symmetry adapted basis functions of AU  symmetry.
 There are     9 symmetry adapted basis functions of B1U symmetry.
 There are     9 symmetry adapted basis functions of B2U symmetry.
 There are     9 symmetry adapted basis functions of B3U symmetry.
    50 basis functions,   114 primitive gaussians,    59 cartesian basis functions
     9 alpha electrons        7 beta electrons
       nuclear repulsion energy         0.0000000000 Hartrees.
 IExCor=    0 DFT=F Ex=HF Corr=None ExCW=0 ScaHFX=  1.000000
 ScaDFX=  1.000000  1.000000  1.000000  1.000000 ScalE2=  1.000000  1.000000
 IRadAn=      5 IRanWt=     -1 IRanGd=            0 ICorTp=0 IEmpDi=  4
 NAtoms=    1 NActive=    1 NUniq=    1 SFac= 1.00D+00 NAtFMM=   60 NAOKFM=F Big=F
 Integral buffers will be    131072 words long.
 Raffenetti 2 integral format.
 Two-electron integral symmetry is turned on.
 Leave Link  301 at Mon Oct  5 21:27:05 2020, MaxMem=   268435456 cpu:               0.8 elap:               0.2
 (Enter /applis/site/cecic/gaussian16/B.01/nehalem/g16/l302.exe)
 NPDir=0 NMtPBC=     1 NCelOv=     1 NCel=       1 NClECP=     1 NCelD=      1
         NCelK=      1 NCelE2=     1 NClLst=     1 CellRange=     0.0.
 One-electron integrals computed using PRISM.
 One-electron integral symmetry used in STVInt
 NBasis=    50 RedAO= T EigKep=  1.59D-02  NBF=    12     3     3     3     2     9     9     9
 NBsUse=    50 1.00D-06 EigRej= -1.00D+00 NBFU=    12     3     3     3     2     9     9     9
 Leave Link  302 at Mon Oct  5 21:27:06 2020, MaxMem=   268435456 cpu:               1.6 elap:               0.3
 (Enter /applis/site/cecic/gaussian16/B.01/nehalem/g16/l303.exe)
 DipDrv:  MaxL=1.
 Leave Link  303 at Mon Oct  5 21:27:06 2020, MaxMem=   268435456 cpu:               2.1 elap:               0.4
 (Enter /applis/site/cecic/gaussian16/B.01/nehalem/g16/l401.exe)
 ExpMin= 3.51D-02 ExpMax= 3.74D+05 ExpMxC= 1.18D+03 IAcc=3 IRadAn=         5 AccDes= 0.00D+00
 Harris functional with IExCor=  205 and IRadAn=       5 diagonalized for initial guess.
 HarFok:  IExCor=  205 AccDes= 0.00D+00 IRadAn=         5 IDoV= 1 UseB2=F ITyADJ=14
 ICtDFT=  3500011 ScaDFX=  1.000000  1.000000  1.000000  1.000000
 FoFCou: FMM=F IPFlag=           0 FMFlag=      100000 FMFlg1=           0
         NFxFlg=           0 DoJE=T BraDBF=F KetDBF=T FulRan=T
         wScrn=  0.000000 ICntrl=       500 IOpCl=  0 I1Cent=   200000004 NGrid=           0
         NMat0=    1 NMatS0=      1 NMatT0=    0 NMatD0=    1 NMtDS0=    0 NMtDT0=    0
 Petite list used in FoFCou.
 Harris En= -397.009015515354    
 JPrj=0 DoOrth=F DoCkMO=F.
 Initial guess orbital symmetries:
       Occupied  (A1G) (A1G) (T1U) (T1U) (T1U) (A1G) (T1U) (T1U)
                 (T1U)
       Virtual   (A1G) (T1U) (T1U) (T1U) (T2G) (T2G) (T2G) (EG)
                 (EG) (T1U) (T1U) (T1U) (T2G) (T2G) (T2G) (EG)
                 (EG) (A1G) (T2U) (T2U) (T2U) (A2U) (T1U) (T1U)
                 (T1U) (T2G) (T2G) (T2G) (EG) (EG) (T1U) (T1U)
                 (T1U) (T2U) (T2U) (T2U) (A2U) (T1U) (T1U) (T1U)
                 (A1G)
 Leave Link  401 at Mon Oct  5 21:27:06 2020, MaxMem=   268435456 cpu:               1.8 elap:               0.3
 (Enter /applis/site/cecic/gaussian16/B.01/nehalem/g16/l502.exe)
 Keep R1 and R2 ints in memory in symmetry-blocked form, NReq=4746118.
 FoFCou: FMM=F IPFlag=           0 FMFlag=           0 FMFlg1=           0
         NFxFlg=           0 DoJE=F BraDBF=F KetDBF=F FulRan=T
         wScrn=  0.000000 ICntrl=       600 IOpCl=  0 I1Cent=           0 NGrid=           0
         NMat0=    1 NMatS0=   1275 NMatT0=    0 NMatD0=    1 NMtDS0=    0 NMtDT0=    0
 Petite list used in FoFCou.
 Restricted open shell SCF:
 Using DIIS extrapolation, IDIIS=  1040.
 NGot=   268435456 LenX=   268204232 LenY=   268200310
 Requested convergence on RMS density matrix=1.00D-08 within 128 cycles.
 Requested convergence on MAX density matrix=1.00D-06.
 Requested convergence on             energy=1.00D-06.
 No special actions if energy rises.

 Cycle   1  Pass 1  IDiag  1:
 Density matrix breaks symmetry, PCut= 1.00D-07
 Density has only Abelian symmetry.
 E= -397.486667052772    
 DIIS: error= 7.14D-02 at cycle   1 NSaved=   1.
 NSaved= 1 IEnMin= 1 EnMin= -397.486667052772     IErMin= 1 ErrMin= 7.14D-02
 ErrMax= 7.14D-02  0.00D+00 EMaxC= 1.00D-01 BMatC= 9.05D-02 BMatP= 9.05D-02
 IDIUse=3 WtCom= 2.86D-01 WtEn= 7.14D-01
 Coeff-Com:  0.100D+01
 Coeff-En:   0.100D+01
 Coeff:      0.100D+01
 Gap=     0.259 Goal=   None    Shift=    0.000
 GapD=    0.259 DampG=1.000 DampE=0.500 DampFc=0.5000 IDamp=-1.
 Damping current iteration by 5.00D-01
 RMSDP=3.19D-03 MaxDP=6.60D-02              OVMax= 7.58D-02

 Cycle   2  Pass 1  IDiag  1:
 Density matrix breaks symmetry, PCut= 1.00D-07
 Density has only Abelian symmetry.
 E= -397.494485897289     Delta-E=       -0.007818844517 Rises=F Damp=T
 DIIS: error= 3.49D-02 at cycle   2 NSaved=   2.
 NSaved= 2 IEnMin= 2 EnMin= -397.494485897289     IErMin= 2 ErrMin= 3.49D-02
 ErrMax= 3.49D-02  0.00D+00 EMaxC= 1.00D-01 BMatC= 2.10D-02 BMatP= 9.05D-02
 IDIUse=3 WtCom= 6.51D-01 WtEn= 3.49D-01
 Coeff-Com: -0.839D+00 0.184D+01
 Coeff-En:   0.000D+00 0.100D+01
 Coeff:     -0.546D+00 0.155D+01
 Gap=     0.235 Goal=   None    Shift=    0.000
 RMSDP=2.53D-03 MaxDP=5.33D-02 DE=-7.82D-03 OVMax= 1.04D-01

 Cycle   3  Pass 1  IDiag  1:
 Density matrix breaks symmetry, PCut= 1.00D-07
 Density has only Abelian symmetry.
 E= -397.498635619704     Delta-E=       -0.004149722415 Rises=F Damp=F
 DIIS: error= 1.15D-02 at cycle   3 NSaved=   3.
 NSaved= 3 IEnMin= 3 EnMin= -397.498635619704     IErMin= 3 ErrMin= 1.15D-02
 ErrMax= 1.15D-02  0.00D+00 EMaxC= 1.00D-01 BMatC= 2.43D-03 BMatP= 2.10D-02
 IDIUse=3 WtCom= 8.85D-01 WtEn= 1.15D-01
 Coeff-Com: -0.451D+00 0.920D+00 0.531D+00
 Coeff-En:   0.000D+00 0.170D+00 0.830D+00
 Coeff:     -0.399D+00 0.833D+00 0.566D+00
 Gap=     0.247 Goal=   None    Shift=    0.000
 RMSDP=1.79D-03 MaxDP=4.42D-02 DE=-4.15D-03 OVMax= 6.38D-02

 Cycle   4  Pass 1  IDiag  1:
 Density matrix breaks symmetry, PCut= 1.00D-07
 Density has only Abelian symmetry.
 E= -397.503740253181     Delta-E=       -0.005104633478 Rises=F Damp=F
 DIIS: error= 2.48D-03 at cycle   4 NSaved=   4.
 NSaved= 4 IEnMin= 4 EnMin= -397.503740253181     IErMin= 4 ErrMin= 2.48D-03
 ErrMax= 2.48D-03  0.00D+00 EMaxC= 1.00D-01 BMatC= 1.29D-04 BMatP= 2.43D-03
 IDIUse=3 WtCom= 9.75D-01 WtEn= 2.48D-02
 Coeff-Com: -0.158D+00 0.318D+00 0.365D-01 0.803D+00
 Coeff-En:   0.000D+00 0.000D+00 0.000D+00 0.100D+01
 Coeff:     -0.154D+00 0.310D+00 0.356D-01 0.808D+00
 Gap=     0.245 Goal=   None    Shift=    0.000
 RMSDP=2.42D-04 MaxDP=8.02D-03 DE=-5.10D-03 OVMax= 8.32D-03

 Cycle   5  Pass 1  IDiag  1:
 Density matrix breaks symmetry, PCut= 1.00D-07
 Density has only Abelian symmetry.
 E= -397.503939544155     Delta-E=       -0.000199290974 Rises=F Damp=F
 DIIS: error= 1.24D-03 at cycle   5 NSaved=   5.
 NSaved= 5 IEnMin= 5 EnMin= -397.503939544155     IErMin= 5 ErrMin= 1.24D-03
 ErrMax= 1.24D-03  0.00D+00 EMaxC= 1.00D-01 BMatC= 2.88D-05 BMatP= 1.29D-04
 IDIUse=3 WtCom= 9.88D-01 WtEn= 1.24D-02
 Coeff-Com: -0.315D-01 0.624D-01-0.209D-01-0.446D+00 0.144D+01
 Coeff-En:   0.000D+00 0.000D+00 0.000D+00 0.000D+00 0.100D+01
 Coeff:     -0.312D-01 0.616D-01-0.206D-01-0.441D+00 0.143D+01
 Gap=     0.244 Goal=   None    Shift=    0.000
 RMSDP=1.76D-04 MaxDP=3.87D-03 DE=-1.99D-04 OVMax= 7.00D-03

 Cycle   6  Pass 1  IDiag  1:
 Density matrix breaks symmetry, PCut= 1.00D-07
 Density has only Abelian symmetry.
 E= -397.504002441652     Delta-E=       -0.000062897497 Rises=F Damp=F
 DIIS: error= 2.39D-04 at cycle   6 NSaved=   6.
 NSaved= 6 IEnMin= 6 EnMin= -397.504002441652     IErMin= 6 ErrMin= 2.39D-04
 ErrMax= 2.39D-04  0.00D+00 EMaxC= 1.00D-01 BMatC= 1.17D-06 BMatP= 2.88D-05
 IDIUse=3 WtCom= 9.98D-01 WtEn= 2.39D-03
 Coeff-Com: -0.807D-02 0.170D-01 0.145D-01-0.147D-01-0.260D+00 0.125D+01
 Coeff-En:   0.000D+00 0.000D+00 0.000D+00 0.000D+00 0.000D+00 0.100D+01
 Coeff:     -0.805D-02 0.169D-01 0.145D-01-0.146D-01-0.259D+00 0.125D+01
 Gap=     0.245 Goal=   None    Shift=    0.000
 RMSDP=3.08D-05 MaxDP=8.83D-04 DE=-6.29D-05 OVMax= 1.10D-03

 Cycle   7  Pass 1  IDiag  1:
 Density matrix breaks symmetry, PCut= 1.00D-07
 Density has only Abelian symmetry.
 E= -397.504004741587     Delta-E=       -0.000002299935 Rises=F Damp=F
 DIIS: error= 7.61D-05 at cycle   7 NSaved=   7.
 NSaved= 7 IEnMin= 7 EnMin= -397.504004741587     IErMin= 7 ErrMin= 7.61D-05
 ErrMax= 7.61D-05  0.00D+00 EMaxC= 1.00D-01 BMatC= 1.03D-07 BMatP= 1.17D-06
 IDIUse=1 WtCom= 1.00D+00 WtEn= 0.00D+00
 Coeff-Com:  0.159D-02-0.301D-02-0.394D-02-0.131D-02-0.460D-01 0.446D-01
 Coeff-Com:  0.101D+01
 Coeff:      0.159D-02-0.301D-02-0.394D-02-0.131D-02-0.460D-01 0.446D-01
 Coeff:      0.101D+01
 Gap=     0.244 Goal=   None    Shift=    0.000
 RMSDP=1.65D-05 MaxDP=4.01D-04 DE=-2.30D-06 OVMax= 6.40D-04

 Cycle   8  Pass 1  IDiag  1:
 Density matrix breaks symmetry, PCut= 1.00D-07
 Density has only Abelian symmetry.
 E= -397.504004984650     Delta-E=       -0.000000243062 Rises=F Damp=F
 DIIS: error= 1.34D-05 at cycle   8 NSaved=   8.
 NSaved= 8 IEnMin= 8 EnMin= -397.504004984650     IErMin= 8 ErrMin= 1.34D-05
 ErrMax= 1.34D-05  0.00D+00 EMaxC= 1.00D-01 BMatC= 3.69D-09 BMatP= 1.03D-07
 IDIUse=1 WtCom= 1.00D+00 WtEn= 0.00D+00
 Coeff-Com: -0.821D-04 0.728D-04 0.315D-03 0.260D-02 0.219D-01-0.923D-01
 Coeff-Com: -0.442D-02 0.107D+01
 Coeff:     -0.821D-04 0.728D-04 0.315D-03 0.260D-02 0.219D-01-0.923D-01
 Coeff:     -0.442D-02 0.107D+01
 Gap=     0.244 Goal=   None    Shift=    0.000
 RMSDP=2.84D-06 MaxDP=6.80D-05 DE=-2.43D-07 OVMax= 1.02D-04

 Cycle   9  Pass 1  IDiag  1:
 Density matrix breaks symmetry, PCut= 1.00D-07
 Density has only Abelian symmetry.
 E= -397.504004993036     Delta-E=       -0.000000008387 Rises=F Damp=F
 DIIS: error= 6.12D-07 at cycle   9 NSaved=   9.
 NSaved= 9 IEnMin= 9 EnMin= -397.504004993036     IErMin= 9 ErrMin= 6.12D-07
 ErrMax= 6.12D-07  0.00D+00 EMaxC= 1.00D-01 BMatC= 7.90D-12 BMatP= 3.69D-09
 IDIUse=1 WtCom= 1.00D+00 WtEn= 0.00D+00
 Coeff-Com: -0.566D-05 0.160D-04 0.258D-04-0.650D-04-0.116D-02 0.561D-02
 Coeff-Com: -0.195D-01-0.659D-01 0.108D+01
 Coeff:     -0.566D-05 0.160D-04 0.258D-04-0.650D-04-0.116D-02 0.561D-02
 Coeff:     -0.195D-01-0.659D-01 0.108D+01
 Gap=     0.244 Goal=   None    Shift=    0.000
 RMSDP=1.23D-07 MaxDP=2.64D-06 DE=-8.39D-09 OVMax= 4.12D-06

 Cycle  10  Pass 1  IDiag  1:
 Density matrix breaks symmetry, PCut= 1.00D-07
 Density has only Abelian symmetry.
 E= -397.504004993058     Delta-E=       -0.000000000022 Rises=F Damp=F
 DIIS: error= 7.38D-08 at cycle  10 NSaved=  10.
 NSaved=10 IEnMin=10 EnMin= -397.504004993058     IErMin=10 ErrMin= 7.38D-08
 ErrMax= 7.38D-08  0.00D+00 EMaxC= 1.00D-01 BMatC= 1.02D-13 BMatP= 7.90D-12
 IDIUse=1 WtCom= 1.00D+00 WtEn= 0.00D+00
 Coeff-Com: -0.620D-06 0.669D-06-0.526D-05-0.245D-05 0.169D-03-0.863D-03
 Coeff-Com:  0.328D-02 0.103D-01-0.216D+00 0.120D+01
 Coeff:     -0.620D-06 0.669D-06-0.526D-05-0.245D-05 0.169D-03-0.863D-03
 Coeff:      0.328D-02 0.103D-01-0.216D+00 0.120D+01
 Gap=     0.244 Goal=   None    Shift=    0.000
 RMSDP=1.41D-08 MaxDP=2.92D-07 DE=-2.18D-11 OVMax= 5.07D-07

 Cycle  11  Pass 1  IDiag  1:
 Density matrix breaks symmetry, PCut= 1.00D-07
 Density has only Abelian symmetry.
 E= -397.504004993059     Delta-E=       -0.000000000001 Rises=F Damp=F
 DIIS: error= 3.54D-09 at cycle  11 NSaved=  11.
 NSaved=11 IEnMin=11 EnMin= -397.504004993059     IErMin=11 ErrMin= 3.54D-09
 ErrMax= 3.54D-09  0.00D+00 EMaxC= 1.00D-01 BMatC= 1.48D-16 BMatP= 1.02D-13
 IDIUse=1 WtCom= 1.00D+00 WtEn= 0.00D+00
 Coeff-Com:  0.760D-08 0.448D-07 0.359D-06-0.133D-05-0.131D-04 0.840D-04
 Coeff-Com: -0.330D-03-0.125D-02 0.250D-01-0.181D+00 0.116D+01
 Coeff:      0.760D-08 0.448D-07 0.359D-06-0.133D-05-0.131D-04 0.840D-04
 Coeff:     -0.330D-03-0.125D-02 0.250D-01-0.181D+00 0.116D+01
 Gap=     0.244 Goal=   None    Shift=    0.000
 RMSDP=7.37D-10 MaxDP=1.32D-08 DE=-1.02D-12 OVMax= 1.60D-08

 Density matrix breaks symmetry, PCut= 1.00D-07
 Density has only Abelian symmetry.
 SCF Done:  E(ROHF) =  -397.504004993     A.U. after   11 cycles
            NFock= 11  Conv=0.74D-09     -V/T= 2.0000
 <Sx>= 0.0000 <Sy>= 0.0000 <Sz>= 1.0000 <S**2>= 2.0000 S= 1.0000
 <L.S>= 0.000000000000E+00
 KE= 3.974912324562D+02 PE=-9.468598999714D+02 EE= 1.518646625222D+02
 Annihilation of the first spin contaminant:
 S**2 before annihilation     2.0000,   after     2.0000
 Leave Link  502 at Mon Oct  5 21:27:07 2020, MaxMem=   268435456 cpu:               6.1 elap:               0.9
 (Enter /applis/site/cecic/gaussian16/B.01/nehalem/g16/l801.exe)
 Windowed orbitals will be sorted by symmetry type.
 Density matrix breaks symmetry, PCut= 1.00D-07
 Density has only Abelian symmetry.
 GenMOA:  NOpAll= 48 NOp2=8 NOpUse=  8 JSym2X=1
 FoFJK:  IHMeth= 1 ICntrl=       0 DoSepK=F KAlg= 0 I1Cent=           0 FoldK=F
 IRaf=         0 NMat=       1 IRICut=       1 DoRegI=T DoRafI=F ISym2E= 1 IDoP0=0 IntGTp=1.
 FoFCou: FMM=F IPFlag=           0 FMFlag=      100000 FMFlg1=           0
         NFxFlg=           0 DoJE=F BraDBF=F KetDBF=F FulRan=T
         wScrn=  0.000000 ICntrl=         0 IOpCl=  1 I1Cent=           0 NGrid=           0
         NMat0=    1 NMatS0=      1 NMatT0=    0 NMatD0=    1 NMtDS0=    0 NMtDT0=    0
 Petite list used in FoFCou.
 <Sx>= 0.0000 <Sy>= 0.0000 <Sz>= 1.0000 <S**2>= 2.0000 S= 1.0000
 ExpMin= 3.51D-02 ExpMax= 3.74D+05 ExpMxC= 1.18D+03 IAcc=3 IRadAn=         5 AccDes= 0.00D+00
 HarFok:  IExCor=  205 AccDes= 0.00D+00 IRadAn=         5 IDoV=-2 UseB2=F ITyADJ=14
 ICtDFT= 12500011 ScaDFX=  1.000000  1.000000  1.000000  1.000000
 Largest valence mixing into a core orbital is  4.76D-04
 Largest core mixing into a valence orbital is  1.79D-04
 Largest valence mixing into a core orbital is  5.35D-04
 Largest core mixing into a valence orbital is  2.39D-04
 Range of M.O.s used for correlation:     6    50
 NBasis=    50 NAE=     9 NBE=     7 NFC=     5 NFV=     0
 NROrb=     45 NOA=     4 NOB=     2 NVA=    41 NVB=    43
 Singles contribution to E2=   -0.3646122022D-02
 Leave Link  801 at Mon Oct  5 21:27:08 2020, MaxMem=   268435456 cpu:               5.5 elap:               0.8
 (Enter /applis/site/cecic/gaussian16/B.01/nehalem/g16/l804.exe)
 Open-shell transformation, MDV=   268435456 ITran=4 ISComp=2.
 Unit  1 TFree=         63388 TCopy=        259638.
 Semi-Direct transformation.
 ModeAB=           2 MOrb=             4 LenV=     268139462
 LASXX=        21445 LTotXX=       21445 LenRXX=       21445
 LTotAB=       23654 MaxLAS=      318600 LenRXY=      318600
 NonZer=      345600 LenScr=      917504 LnRSAI=           0
 LnScr1=           0 LExtra=           0 Total=      1257549
 MaxDsk=          -1 SrtSym=           F ITran=            4
 DoSDTr:  NPSUse=  8
 JobTyp=1 Pass  1:  I=   1 to   4.
 (rs|ai) integrals will be sorted in core.
 Complete sort for first half transformation.
 First half transformation complete.
 Complete sort for second half transformation.
 Second half transformation complete.
 ModeAB=           2 MOrb=             2 LenV=     268139462
 LASXX=        11107 LTotXX=       11107 LenRXX=      159300
 LTotAB=       10107 MaxLAS=      159300 LenRXY=       10107
 NonZer=      172800 LenScr=      720896 LnRSAI=           0
 LnScr1=           0 LExtra=           0 Total=       890303
 MaxDsk=          -1 SrtSym=           F ITran=            4
 DoSDTr:  NPSUse=  8
 JobTyp=2 Pass  1:  I=   1 to   2.
 (rs|ai) integrals will be sorted in core.
 Complete sort for first half transformation.
 First half transformation complete.
 Complete sort for second half transformation.
 Second half transformation complete.
 Spin components of T(2) and E(2):
     alpha-alpha T2 =       0.1059243563D-01 E2=     -0.2429027175D-01
     alpha-beta  T2 =       0.3925468976D-01 E2=     -0.9422297886D-01
     beta-beta   T2 =       0.1619636143D-02 E2=     -0.3508839515D-02
 ANorm=    0.1026651815D+01
 E2 =    -0.1256682121D+00 EUMP2 =    -0.39762967320521D+03
 (S**2,0)=  0.20000D+01           (S**2,1)=  0.20000D+01
 E(PUHF)=      -0.39750400499D+03        E(PMP2)=      -0.39762967321D+03
 Leave Link  804 at Mon Oct  5 21:27:09 2020, MaxMem=   268435456 cpu:               4.1 elap:               0.6
 (Enter /applis/site/cecic/gaussian16/B.01/nehalem/g16/l913.exe)
 CIDS:  MDV=   268435456.
 Frozen-core window:  NFC=   5 NFV=   0.
 IFCWin=0 IBDFC=1 NFBD=     0     0 NFCmp=     0     0 NFFFC=     0     0
 Using original routines for 1st iteration.
 Using DD4UQ or CC4UQ for 2nd and later iterations.
 Keep R2 and R3 ints in memory in symmetry-blocked form, NReq=4749862.
 FoFCou: FMM=F IPFlag=           0 FMFlag=           0 FMFlg1=           0
         NFxFlg=           0 DoJE=F BraDBF=F KetDBF=F FulRan=T
         wScrn=  0.000000 ICntrl=       600 IOpCl=  0 I1Cent=           0 NGrid=           0
         NMat0=    1 NMatS0=   1275 NMatT0=    0 NMatD0=    1 NMtDS0=    0 NMtDT0=    0
 Petite list used in FoFCou.
 CIDS: In Core Option IDoMem=           1.
 CCSD(T)
 =======
 Iterations=  50 Convergence= 0.100D-06
 Produce multiple copies of IABC intergrals
 Iteration Nr.   1
 **********************
 DD1Dir will call FoFMem   1 times, MxPair=        24
 NAB=     8 NAA=     6 NBB=     1.
 DD1Dir will call FoFMem   1 times, MxPair=        24
 NAB=     8 NAA=     6 NBB=     1.
 MP4(R+Q)=  0.23573481D-01
 Maximum subspace dimension=  5
 A-vector RMS=  4.6738707D-04 Max=  1.2311121D-03 conv= 1.00D-05.
 RLE energy=       -0.1222443303
 E3=       -0.20113824D-01        EROMP3=      -0.39764978703D+03
 E4(SDQ)=  -0.14888176D-02        ROMP4(SDQ)=  -0.39765127585D+03
 VARIATIONAL ENERGIES WITH THE FIRST-ORDER WAVEFUNCTION:
 DE(Corr)= -0.12214558     E(Corr)=     -397.62615057    
 NORM(A)=   0.10250059D+01
 Iteration Nr.   2
 **********************
 DD1Dir will call FoFMem   1 times, MxPair=        24
 NAB=     8 NAA=     6 NBB=     1.
 A-vector RMS=  2.1801809D-03 Max=  6.1710536D-03 conv= 1.00D-05.
 RLE energy=       -0.1275153300
 DE(Corr)= -0.14181522     E(CORR)=     -397.64582022     Delta=-1.97D-02
 NORM(A)=   0.10273210D+01
 Iteration Nr.   3
 **********************
 DD1Dir will call FoFMem   1 times, MxPair=        24
 NAB=     8 NAA=     6 NBB=     1.
 A-vector RMS=  1.7369982D-03 Max=  5.0235363D-03 conv= 1.00D-05.
 RLE energy=       -0.1399562337
 DE(Corr)= -0.14282399     E(CORR)=     -397.64682898     Delta=-1.01D-03
 NORM(A)=   0.10336495D+01
 Iteration Nr.   4
 **********************
 DD1Dir will call FoFMem   1 times, MxPair=        24
 NAB=     8 NAA=     6 NBB=     1.
 A-vector RMS=  6.4620541D-04 Max=  1.9217454D-03 conv= 1.00D-05.
 RLE energy=       -0.1449657673
 DE(Corr)= -0.14543116     E(CORR)=     -397.64943615     Delta=-2.61D-03
 NORM(A)=   0.10366112D+01
 Iteration Nr.   5
 **********************
 DD1Dir will call FoFMem   1 times, MxPair=        24
 NAB=     8 NAA=     6 NBB=     1.
 A-vector RMS=  1.7417917D-04 Max=  5.1765448D-04 conv= 1.00D-05.
 RLE energy=       -0.1474135479
 DE(Corr)= -0.14650852     E(CORR)=     -397.65051351     Delta=-1.08D-03
 NORM(A)=   0.10380947D+01
 Iteration Nr.   6
 **********************
 DD1Dir will call FoFMem   1 times, MxPair=        24
 NAB=     8 NAA=     6 NBB=     1.
 A-vector RMS=  4.9921055D-05 Max=  1.3369220D-04 conv= 1.00D-05.
 RLE energy=       -0.1468906395
 DE(Corr)= -0.14700531     E(CORR)=     -397.65101030     Delta=-4.97D-04
 NORM(A)=   0.10377788D+01
 Iteration Nr.   7
 **********************
 DD1Dir will call FoFMem   1 times, MxPair=        24
 NAB=     8 NAA=     6 NBB=     1.
 A-vector RMS=  4.4984690D-06 Max=  4.1101791D-05 conv= 1.00D-05.
 RLE energy=       -0.1469056738
 DE(Corr)= -0.14690051     E(CORR)=     -397.65090550     Delta= 1.05D-04
 NORM(A)=   0.10377892D+01
 Iteration Nr.   8
 **********************
 DD1Dir will call FoFMem   1 times, MxPair=        24
 NAB=     8 NAA=     6 NBB=     1.
 A-vector RMS=  1.8751622D-06 Max=  1.1327361D-05 conv= 1.00D-05.
 RLE energy=       -0.1469034482
 DE(Corr)= -0.14690363     E(CORR)=     -397.65090862     Delta=-3.12D-06
 NORM(A)=   0.10377882D+01
 Iteration Nr.   9
 **********************
 DD1Dir will call FoFMem   1 times, MxPair=        24
 NAB=     8 NAA=     6 NBB=     1.
 A-vector RMS=  5.1672907D-07 Max=  2.2617683D-06 conv= 1.00D-05.
 RLE energy=       -0.1469032561
 DE(Corr)= -0.14690335     E(CORR)=     -397.65090834     Delta= 2.84D-07
 NORM(A)=   0.10377880D+01
 Iteration Nr.  10
 **********************
 DD1Dir will call FoFMem   1 times, MxPair=        24
 NAB=     8 NAA=     6 NBB=     1.
 A-vector RMS=  2.2277175D-07 Max=  9.6820565D-07 conv= 1.00D-05.
 RLE energy=       -0.1469032093
 DE(Corr)= -0.14690323     E(CORR)=     -397.65090822     Delta= 1.16D-07
 NORM(A)=   0.10377879D+01
 Iteration Nr.  11
 **********************
 DD1Dir will call FoFMem   1 times, MxPair=        24
 NAB=     8 NAA=     6 NBB=     1.
 A-vector RMS=  6.0806635D-08 Max=  2.2883954D-07 conv= 1.00D-05.
 RLE energy=       -0.1469032072
 DE(Corr)= -0.14690321     E(CORR)=     -397.65090820     Delta= 2.33D-08
 NORM(A)=   0.10377879D+01
 CI/CC converged in   11 iterations to DelEn= 2.33D-08 Conv= 1.00D-07 ErrA1= 6.08D-08 Conv= 1.00D-05
 Wavefunction amplitudes converged. E(Corr)=     -397.65090820    
 Largest amplitude= 3.66D-02
 Time for triples=     2184.63 seconds.
 T4(CCSD)= -0.51044999D-02
 T5(CCSD)= -0.88118550D-04
 CCSD(T)= -0.39765610082D+03
 Discarding MO integrals.
 Leave Link  913 at Mon Oct  5 21:32:47 2020, MaxMem=   268435456 cpu:            2219.6 elap:             338.6
 (Enter /applis/site/cecic/gaussian16/B.01/nehalem/g16/l601.exe)
 Copying SCF densities to generalized density rwf, IOpCl= 0 IROHF=1.
 SCF density gives NOpUse=  8 NOpAll= 48.
 Marking SCF density as not fully symmetric.

 **********************************************************************

            Population analysis using the SCF Density.

 **********************************************************************

 Orbital symmetries:
       Occupied  (A1G) (A1G) (T1U) (T1U) (T1U) (A1G) (?A) (?A)
                 (?A)
       Virtual   (?A) (?A) (?A) (?B) (?B) (T2G) (T2G) (T2G) (?B)
                 (?A) (?A) (?A) (?B) (T2G) (T2G) (T2G) (?B) (?B)
                 (?A) (?A) (?A) (A2U) (?A) (?A) (?A) (?B) (T2G)
                 (T2G) (T2G) (?B) (?A) (?A) (?A) (?A) (?A) (A2U)
                 (?A) (?A) (?A) (?A) (A1G)
 Unable to determine electronic state:  an orbital has unidentified symmetry.
 Alpha  occ. eigenvalues --  -92.01417  -9.01398  -6.70556  -6.70556  -6.68560
 Alpha  occ. eigenvalues --   -0.98548  -0.48107  -0.48107  -0.42349
 Alpha virt. eigenvalues --    0.09191   0.09191   0.09948   0.09994   0.24165
 Alpha virt. eigenvalues --    0.24165   0.25786   0.25786   0.26202   0.51336
 Alpha virt. eigenvalues --    0.51336   0.54242   0.66968   0.66968   0.70275
 Alpha virt. eigenvalues --    0.70275   0.71143   0.72681   0.81772   0.81772
 Alpha virt. eigenvalues --    0.83472   0.83472   0.84478   0.84478   0.84803
 Alpha virt. eigenvalues --    1.95591   1.95591   1.98987   1.98987   2.00118
 Alpha virt. eigenvalues --    2.27604   2.27604   2.28899   2.28899   2.30637
 Alpha virt. eigenvalues --    2.30637   2.32489   2.32489   2.32547   2.33769
 Alpha virt. eigenvalues --    4.08244
          Condensed to atoms (all electrons):
               1
     1  S   16.000000
          Atomic-Atomic Spin Densities.
               1
     1  S    2.000000
 Mulliken charges and spin densities:
               1          2
     1  S   -0.000000   2.000000
 Sum of Mulliken charges =  -0.00000   2.00000
 Mulliken charges and spin densities with hydrogens summed into heavy atoms:
               1          2
     1  S   -0.000000   2.000000
 Electronic spatial extent (au):  <R**2>=             29.2412
 Charge=             -0.0000 electrons
 Dipole moment (field-independent basis, Debye):
    X=              0.0000    Y=              0.0000    Z=              0.0000  Tot=              0.0000
 Quadrupole moment (field-independent basis, Debye-Ang):
   XX=            -12.1547   YY=            -15.0210   ZZ=            -12.1547
   XY=              0.0000   XZ=             -0.0000   YZ=             -0.0000
 Traceless Quadrupole moment (field-independent basis, Debye-Ang):
   XX=              0.9554   YY=             -1.9109   ZZ=              0.9554
   XY=              0.0000   XZ=             -0.0000   YZ=             -0.0000
 Octapole moment (field-independent basis, Debye-Ang**2):
  XXX=              0.0000  YYY=              0.0000  ZZZ=              0.0000  XYY=              0.0000
  XXY=              0.0000  XXZ=              0.0000  XZZ=              0.0000  YZZ=              0.0000
  YYZ=              0.0000  XYZ=              0.0000
 Hexadecapole moment (field-independent basis, Debye-Ang**3):
 XXXX=            -15.1959 YYYY=            -23.0476 ZZZZ=            -15.1959 XXXY=              0.0000
 XXXZ=             -0.0000 YYYX=              0.0000 YYYZ=             -0.0000 ZZZX=             -0.0000
 ZZZY=             -0.0000 XXYY=             -6.3760 XXZZ=             -5.0653 YYZZ=             -6.3760
 XXYZ=             -0.0000 YYXZ=             -0.0000 ZZXY=              0.0000
 N-N= 0.000000000000D+00 E-N=-9.468599000485D+02  KE= 3.974912324562D+02
 Symmetry AG   KE= 2.847436547726D+02
 Symmetry B1G  KE= 2.916395777748D-37
 Symmetry B2G  KE=-2.853634441780D-56
 Symmetry B3G  KE= 2.916395777749D-37
 Symmetry AU   KE= 5.078560169008D-36
 Symmetry B1U  KE= 3.700552934921D+01
 Symmetry B2U  KE= 3.873651898514D+01
 Symmetry B3U  KE= 3.700552934921D+01
 Symmetry AG   SP= 2.334324256253D-15
 Symmetry B1G  SP= 1.730419019187D-52
 Symmetry B2G  SP=-1.216620693564D-69
 Symmetry B3G  SP= 1.710241043963D-52
 Symmetry AU   SP= 2.876656093916D-36
 Symmetry B1U  SP= 1.000000000000D+00
 Symmetry B2U  SP= 1.465522106902D-15
 Symmetry B3U  SP= 1.000000000000D+00
                          Isotropic Fermi Contact Couplings
        Atom                 a.u.       MegaHertz       Gauss      10(-4) cm-1
     1  S(33)              0.00000       0.00000       0.00000       0.00000
 --------------------------------------------------------
       Center         ----  Spin Dipole Couplings  ----
                      3XX-RR        3YY-RR        3ZZ-RR
 --------------------------------------------------------
     1   Atom        1.978875     -3.957751      1.978875
 --------------------------------------------------------
                        XY            XZ            YZ
 --------------------------------------------------------
     1   Atom        0.000000      0.000000      0.000000
 --------------------------------------------------------


 ---------------------------------------------------------------------------------
              Anisotropic Spin Dipole Couplings in Principal Axis System
 ---------------------------------------------------------------------------------

       Atom             a.u.   MegaHertz   Gauss  10(-4) cm-1        Axes

              Baa    -3.9578  -162.264   -57.900   -54.125 -0.0000  1.0000  0.0000
     1 S(33)  Bbb     1.9789    81.132    28.950    27.063  0.0000  0.0000  1.0000
              Bcc     1.9789    81.132    28.950    27.063  1.0000  0.0000  0.0000
 

 ---------------------------------------------------------------------------------

 No NMR shielding tensors so no spin-rotation constants.
 Leave Link  601 at Mon Oct  5 21:32:48 2020, MaxMem=   268435456 cpu:               2.2 elap:               0.4
 (Enter /applis/site/cecic/gaussian16/B.01/nehalem/g16/l9999.exe)
 1\1\GINC-DAHU72\SP\ROCCSD(T)-FC\Aug-CC-pVTZ\S1(3)\TINACCIL\05-Oct-2020
 \0\\#P ROCCSD(T)/aug-cc-pvtz\\Title\\0,3\S\\Version=ES64L-G16RevB.01\H
 F=-397.504005\MP2=-397.6296732\MP3=-397.649787\PUHF=-397.504005\PMP2-0
 =-397.6296732\MP4SDQ=-397.6512758\CCSD=-397.6509082\CCSD(T)=-397.65610
 08\RMSD=7.368e-10\PG=OH [O(S1)]\\@


 THOSE WHO TRY TO PASS CHEMISTRY OFF AS A NEW SCIENCE
 SHOW HOW LITTLE KNOWLEDGE THEY HAVE OF THE CHARACTER
 AND LITERATURE OF THE ANCIENTS.
   -- NICOLAS LEFEVRE
 "COURS DE CHYMIE" J.-N.LELOUP, PARIS, 1751
 Job cpu time:       0 days  0 hours 37 minutes 27.8 seconds.
 Elapsed time:       0 days  0 hours  5 minutes 43.2 seconds.
 File lengths (MBytes):  RWF=     23 Int=      0 D2E=      0 Chk=      2 Scr=      1
 Normal termination of Gaussian 16 at Mon Oct  5 21:32:48 2020.
