[Molden Format]
[Title]
[Atoms] AU
N      1     7  0.00000000000000E+00  0.00000000000000E+00  0.00000000000000E+00
[GTO]
           1 0
 s           4   1.0000000000000000     
   63.594024466941008      -0.19234388414721629     
   10.951417231523665      -0.23478107924953728     
  0.87999310257376984       0.37593753901700888     
  0.33538715296521110       0.14982889271862770     
 p           4   1.0000000000000000     
   7.2965040481495080       0.97658666315667420     
   1.8918745450712575       0.90372226730345739     
  0.66694432110824120       0.47404958461536373     
  0.26552202674130870        7.1516067715011844E-002

[MO]
Sym=     1a
Ene=  -0.61065384553238355     
Spin= Alpha
Occup=     2.00000000
           1   1.0000000000225666     
           2   0.0000000000000000     
           3   0.0000000000000000     
           4   0.0000000000000000     
Sym=     2a
Ene=  -0.46568946532207534     
Spin= Alpha
Occup=     1.00000000
           1   0.0000000000000000     
           2   1.0000000000494358     
           3   0.0000000000000000     
           4   0.0000000000000000     
Sym=     3a
Ene=  -0.46568946532207534     
Spin= Alpha
Occup=     1.00000000
           1   0.0000000000000000     
           2   0.0000000000000000     
           3   1.0000000000494358     
           4   0.0000000000000000     
Sym=     4a
Ene=  -0.46568946532207534     
Spin= Alpha
Occup=     1.00000000
           1   0.0000000000000000     
           2   0.0000000000000000     
           3   0.0000000000000000     
           4   1.0000000000494358     
