$hessian                                                                        
        0.2185796480   0.2383316611   0.0129071561  -0.0356882737  -0.1609580042
       -0.0019690625  -0.1828913743  -0.0773736570  -0.0109380937
        0.2383316611   0.3022865989   0.0140254353  -0.0517565045  -0.2249985044
       -0.0028651640  -0.1865751566  -0.0772880946  -0.0111602713
        0.0129071561   0.0140254353   0.0007622237  -0.0020928396  -0.0094484888
       -0.0001154594  -0.0108143165  -0.0045769464  -0.0006467644
       -0.0356882737  -0.0517565045  -0.0020928396   0.5261566785  -0.3939960729
        0.0321664816  -0.4904684047   0.4457525774  -0.0300736420
       -0.1609580042  -0.2249985044  -0.0094484888  -0.3939960729   0.5431244070
       -0.0243680766   0.5549540771  -0.3181259027   0.0338165655
       -0.0019690625  -0.0028651640  -0.0001154594   0.0321664816  -0.0243680766
        0.0019668101  -0.0301974191   0.0272332407  -0.0018513507
       -0.1828913743  -0.1865751566  -0.0108143165  -0.4904684047   0.5549540771
       -0.0301974191   0.6733597790  -0.3683789204   0.0410117356
       -0.0773736570  -0.0772880946  -0.0045769464   0.4457525774  -0.3181259027
        0.0272332407  -0.3683789204   0.3954139972  -0.0226562942
       -0.0109380937  -0.0111602713  -0.0006467644  -0.0300736420   0.0338165655
       -0.0018513507   0.0410117356  -0.0226562942   0.0024981150
