3
 energy: -9.667217415601 gnorm: 0.279514000073 xtb: 6.2.2 (9d81278992624c895f80dd42a50cac0aa55982e2)
O        -0.48376700000000   -0.57607200000000   -0.02851400000000
N        -0.25885000000000    0.71005500000000   -0.01640900000000
N         0.74261800000000   -0.13398300000000    0.04492400000000
3
 energy: -9.703260710248 gnorm: 0.110504603227 xtb: 6.2.2 (9d81278992624c895f80dd42a50cac0aa55982e2)
O        -0.52714989568175   -0.62773255856776   -0.03107108527944
N        -0.20803289325106    0.71133818029523   -0.01334671189336
N         0.73518378893281   -0.08360562172747    0.04441879717280
3
 energy: -9.709381206165 gnorm: 0.051681224478 xtb: 6.2.2 (9d81278992624c895f80dd42a50cac0aa55982e2)
O        -0.55318594735607   -0.65873767170529   -0.03260570719969
N        -0.17075633266907    0.70639655458780   -0.01109373423358
N         0.72394328002514   -0.04765888288251    0.04370044143327
3
 energy: -9.710004694219 gnorm: 0.011432270316 xtb: 6.2.2 (9d81278992624c895f80dd42a50cac0aa55982e2)
O        -0.55431554828751   -0.66008306413180   -0.03267228812269
N        -0.17638032972736    0.71228536199241   -0.01143946510020
N         0.73069687801487   -0.05220229786061    0.04411275322288
3
 energy: -9.710070924589 gnorm: 0.002400752043 xtb: 6.2.2 (9d81278992624c895f80dd42a50cac0aa55982e2)
O        -0.55705734391964   -0.66334768719788   -0.03283389607572
N        -0.17542212590474    0.71426526213066   -0.01138393552072
N         0.73248046982438   -0.05091757493278    0.04421883159644
3
 energy: -9.710074899398 gnorm: 0.000179922970 xtb: 6.2.2 (9d81278992624c895f80dd42a50cac0aa55982e2)
O        -0.55793652234206   -0.66439455891817   -0.03288571689173
N        -0.17487203655183    0.71469552684990   -0.01135125769503
N         0.73280955889389   -0.05030096793173    0.04423797458676
