      -----------------------------------------------------------      
     |                   =====================                   |     
     |                           x T B                           |     
     |                   =====================                   |     
     |                         S. Grimme                         |     
     |          Mulliken Center for Theoretical Chemistry        |     
     |                    University of Bonn                     |     
      -----------------------------------------------------------      

   * xtb version 6.2.2 (9d81278992624c895f80dd42a50cac0aa55982e2) compiled by '@Darwin' on 04/03/2020

   xtb is free software: you can redistribute it and/or modify it under
   the terms of the GNU Lesser General Public License as published by
   the Free Software Foundation, either version 3 of the License, or
   (at your option) any later version.
   
   xtb is distributed in the hope that it will be useful,
   but WITHOUT ANY WARRANTY; without even the implied warranty of
   MERCHANTABILITY or FITNESS FOR A PARTICULAR PURPOSE.  See the
   GNU Lesser General Public License for more details.
   
   Cite this work as:
   * S. Grimme, C. Bannwarth, P. Shushkov, J. Chem. Theory Comput., 2017,
     13, 1989-2009. DOI: 10.1021/acs.jctc.7b00118
   * C. Bannwarth, S. Ehlert and S. Grimme., J. Chem. Theory Comput., 2019,
     15, 1652-1671. DOI: 10.1021/acs.jctc.8b01176
   * P. Pracht, E. Caldeweyher, S. Ehlert, S. Grimme, ChemRxiv, 2019, preprint.
     DOI: 10.26434/chemrxiv.8326202.v1
   
   for DFT-D4:
   * E. Caldeweyher, C. Bannwarth and S. Grimme, J. Chem. Phys., 2017,
     147, 034112. DOI: 10.1063/1.4993215
   * E. Caldeweyher, S. Ehlert, A. Hansen, H. Neugebauer, S. Spicher,
     C. Bannwarth and S. Grimme, J. Chem. Phys., 2019, 150, 154122.
     DOI: 10.1063/1.5090222
   
   for sTDA-xTB:
   * S. Grimme and C. Bannwarth, J. Chem. Phys., 2016, 145, 054103.
     DOI: 10.1063/1.4959605
   
   in the mass-spec context:
   * V. Asgeirsson, C. Bauer and S. Grimme, Chem. Sci., 2017, 8, 4879.
     DOI: 10.1039/c7sc00601b
   
   for metadynamics refer to:
   * S. Grimme, J. Chem. Theory Comput., 2019, 155, 2847-2862
     DOI: 10.1021/acs.jctc.9b00143
   
   with help from (in alphabetical order)
   C. Bannwarth, F. Bohle, G. Brandenburg, E. Caldeweyher, M. Checinski,
   S. Dohm, S. Ehlert, S. Ehrlich, F. März, H. Neugebauer, J. Pisarek,
   P. Pracht, P. Shushkov, and S. Spicher.
   
 * started run on 2020/05/12 at 11:43:54.750     

           -------------------------------------------------
          |                Calculation Setup                |
           -------------------------------------------------

          program call               : xtb --input N2O1_2_S_0.input N2O1_2_S_0.xyz --ohess --molden --namespace N2O1_2_S_0 output.out
          calculation namespace      : N2O1_2_S_0
          coordinate file            : N2O1_2_S_0.xyz
          number of atoms            :                     3
          number of electrons        :                    16
          charge                     :                     0
          spin                       :                   0.0
          first test random number   :      0.54593169781521

   ID    Z sym.   atoms
    1    8 O      1
    2    7 N      2, 3

           -------------------------------------------------
          |                 G F N 2 - x T B                 |
           -------------------------------------------------

        Reference                      10.1021/acs.jctc.8b01176
      * Hamiltonian:
        H0-scaling (s, p, d)           1.850000    2.230000    2.230000
        zeta-weighting                 0.500000
      * Dispersion:
        s8                             2.700000
        a1                             0.520000
        a2                             5.000000
        s9                             5.000000
      * Repulsion:
        kExp                           1.500000    1.000000
        rExp                           1.000000
      * Coulomb:
        alpha                          2.000000
        third order                    shell-resolved
        anisotropic                    true
        a3                             3.000000
        a5                             4.000000
        cn-shift                       1.200000
        cn-exp                         4.000000
        max-rad                        5.000000


          ...................................................
          :                      SETUP                      :
          :.................................................:
          :  # basis functions                  12          :
          :  # atomic orbitals                  12          :
          :  # shells                            6          :
          :  # electrons                        16          :
          :  max. iterations                   250          :
          :  Hamiltonian                  GFN2-xTB          :
          :  restarted?                      false          :
          :  GBSA solvation                  false          :
          :  PC potential                    false          :
          :  electronic temp.          300.0000000     K    :
          :  accuracy                    1.0000000          :
          :  -> integral cutoff          0.2500000E+02      :
          :  -> integral neglect         0.1000000E-07      :
          :  -> SCF convergence          0.1000000E-05 Eh   :
          :  -> wf. convergence          0.1000000E-03 e    :
          :  Broyden damping             0.4000000          :
          ...................................................

 iter      E             dE          RMSdq      gap      omega  full diag
   1     -9.6705185 -0.967052E+01  0.859E+00    1.72       0.0  T
   2     -9.6946434 -0.241249E-01  0.437E+00    0.86       1.0  T
   3     -9.6974317 -0.278826E-02  0.135E+00    0.42       1.0  T
   4     -9.6979051 -0.473397E-03  0.318E-01    0.62       1.0  T
   5     -9.6979147 -0.965451E-05  0.112E-01    0.60       1.0  T
   6     -9.6979172 -0.251292E-05  0.707E-02    0.64       1.0  T
   7     -9.6979234 -0.614823E-05  0.297E-02    0.64       1.9  T
   8     -9.6979241 -0.685487E-06  0.199E-03    0.63      29.0  T
   9     -9.6979241 -0.449340E-09  0.130E-03    0.63      44.5  T
  10     -9.6979241 -0.871163E-09  0.484E-05    0.63    1192.5  T
  11     -9.6979241 -0.250466E-12  0.249E-06    0.63   23173.9  T

   *** convergence criteria satisfied after 11 iterations ***

         #    Occupation            Energy/Eh            Energy/eV
      -------------------------------------------------------------
         1        2.0000           -0.8529323             -23.2095
         2        2.0000           -0.7208219             -19.6146
         3        2.0000           -0.7032621             -19.1367
         4        2.0000           -0.6760342             -18.3958
         5        2.0000           -0.5884738             -16.0132
         6        2.0000           -0.5406012             -14.7105
         7        2.0000           -0.5155072             -14.0277
         8        2.0000           -0.4380444             -11.9198 (HOMO)
         9        0.0000           -0.4148751             -11.2893 (LUMO)
        10                         -0.1547673              -4.2114
        11                          0.0622483               1.6939
        12                          0.1269403               3.4542
      -------------------------------------------------------------
                  HL-Gap            0.0231693 Eh            0.6305 eV
             Fermi-level           -0.4264597 Eh          -11.6046 eV

 SCC (total)                   0 d,  0 h,  0 min,  0.002 sec
 SCC setup                      ...        0 min,  0.000 sec (  3.516%)
 Dispersion                     ...        0 min,  0.000 sec (  0.413%)
 integral evaluation            ...        0 min,  0.000 sec ( 27.117%)
 zeroth order Hamiltonian       ...        0 min,  0.000 sec (  0.541%)
 iterations                     ...        0 min,  0.001 sec ( 37.139%)
 molecular gradient             ...        0 min,  0.000 sec ( 28.285%)
 printout                       ...        0 min,  0.000 sec (  2.633%)

         :::::::::::::::::::::::::::::::::::::::::::::::::::::
         ::                     SUMMARY                     ::
         :::::::::::::::::::::::::::::::::::::::::::::::::::::
         :: total energy              -9.667217415601 Eh    ::
         :: gradient norm              0.279513999751 Eh/a0 ::
         :: HOMO-LUMO gap              0.630469279390 eV    ::
         ::.................................................::
         :: SCC energy                -9.697924053026 Eh    ::
         :: -> isotropic ES            0.005881159062 Eh    ::
         :: -> anisotropic ES          0.015707049955 Eh    ::
         :: -> anisotropic XC          0.008265237228 Eh    ::
         :: -> dispersion             -0.000712957359 Eh    ::
         :: repulsion energy           0.030706636772 Eh    ::
         :: add. restraining           0.000000000000 Eh    ::
         :::::::::::::::::::::::::::::::::::::::::::::::::::::

      ----------------------------------------------------------- 
     |                   =====================                   |
     |                        A N C O P T                        |
     |                   =====================                   |
     |               Approximate Normal Coordinate               |
     |                Rational Function Optimizer                |
      ----------------------------------------------------------- 

          ...................................................
          :                      SETUP                      :
          :.................................................:
          :   optimization level            normal          :
          :   max. optcycles                   200          :
          :   ANC micro-cycles                  20          :
          :   degrees of freedom                 3          :
          :.................................................:
          :   RF solver                   davidson          :
          :   write xtbopt.log                true          :
          :   linear?                        false          :
          :   energy convergence         0.5000000E-05 Eh   :
          :   grad. convergence          0.1000000E-02 Eh/α :
          :   maximium RF displ.         1.0000000          :
          :   Hlow (freq-cutoff)         0.1000000E-01      :
          :   Hmax (freq-cutoff)         5.0000000          :
          :   S6 in model hess.         20.0000000          :
          ...................................................

generating ANC from model Hessian ...
Using Lindh-Hessian (1995)
 Shifting diagonal of input Hessian by    0.0000000000000000     
 Lowest  eigenvalues of input Hessian
   -0.000000   -0.000000   -0.000000   -0.000000   -0.000000    0.000000
    1.401127    1.411107    2.179987
 Highest eigenvalues
   -0.000000   -0.000000    0.000000    1.401127    1.411107    2.179987


........................................................................
.............................. CYCLE    1 ..............................
........................................................................
   1     -9.6979241 -0.969792E+01  0.412E-07    0.63       0.0  T
   2     -9.6979241  0.000000E+00  0.572E-07    0.63  100000.0  T
   3     -9.6979241  0.888178E-14  0.380E-07    0.63  100000.0  T
     SCC iter.                  ...        0 min,  0.000 sec
     gradient                   ...        0 min,  0.000 sec
 * total energy  :    -9.6672174 Eh     change       -0.4085621E-13 Eh
   gradient norm :     0.2795140 Eh/α   predicted     0.0000000E+00 (-100.00%)
   displ. norm   :     0.1865403 α      lambda       -0.5182577E-01
   maximum displ.:     0.1821278 α      in ANC's #1, #3, #2, ...

........................................................................
.............................. CYCLE    2 ..............................
........................................................................
   1     -9.7390383 -0.973904E+01  0.169E+00    2.20       0.0  T
   2     -9.7401418 -0.110353E-02  0.875E-01    1.95       1.0  T
   3     -9.7402293 -0.874907E-04  0.275E-01    1.89       1.0  T
   4     -9.7402393 -0.998532E-05  0.648E-02    1.90       1.0  T
   5     -9.7402404 -0.107500E-05  0.151E-02    1.90       3.8  T
   6     -9.7402404 -0.487774E-07  0.394E-03    1.90      14.7  T
   7     -9.7402404 -0.375865E-08  0.471E-04    1.90     122.5  T
   8     -9.7402404 -0.131980E-09  0.268E-04    1.90     215.2  T
     SCC iter.                  ...        0 min,  0.000 sec
     gradient                   ...        0 min,  0.000 sec
 * total energy  :    -9.7032607 Eh     change       -0.3604329E-01 Eh
   gradient norm :     0.1105046 Eh/α   predicted    -0.2681457E-01 ( -25.60%)
   displ. norm   :     0.1264793 α      lambda       -0.1396956E-01
   maximum displ.:     0.1262499 α      in ANC's #1, #3, #2, ...

........................................................................
.............................. CYCLE    3 ..............................
........................................................................
   1     -9.7625827 -0.976258E+01  0.125E+00    3.06       0.0  T
   2     -9.7632495 -0.666841E-03  0.654E-01    2.84       1.0  T
   3     -9.7632839 -0.343573E-04  0.219E-01    2.81       1.0  T
   4     -9.7632876 -0.369281E-05  0.402E-02    2.81       1.4  T
   5     -9.7632879 -0.368304E-06  0.900E-03    2.81       6.4  T
   6     -9.7632879 -0.239267E-07  0.261E-03    2.81      22.1  T
   7     -9.7632879 -0.235567E-08  0.433E-04    2.81     133.4  T
   8     -9.7632879 -0.513722E-11  0.112E-04    2.81     515.2  T
     SCC iter.                  ...        0 min,  0.000 sec
     gradient                   ...        0 min,  0.000 sec
 * total energy  :    -9.7093812 Eh     change       -0.6120496E-02 Eh
   gradient norm :     0.0516812 Eh/α   predicted    -0.7096517E-02 (  15.95%)
   displ. norm   :     0.0220330 α      lambda       -0.1119063E-02
   maximum displ.:     0.0180575 α      in ANC's #3, #1, #2, ...

........................................................................
.............................. CYCLE    4 ..............................
........................................................................
   1     -9.7577183 -0.975772E+01  0.243E-01    2.61       0.0  T
   2     -9.7577326 -0.142826E-04  0.134E-01    2.64       1.0  T
   3     -9.7577339 -0.127320E-05  0.320E-02    2.64       1.8  T
   4     -9.7577340 -0.140190E-06  0.849E-03    2.64       6.8  T
   5     -9.7577341 -0.269691E-07  0.164E-03    2.63      35.2  T
   6     -9.7577341 -0.379957E-09  0.274E-04    2.63     210.5  T
   7     -9.7577341 -0.198117E-10  0.140E-04    2.63     412.3  T
     SCC iter.                  ...        0 min,  0.000 sec
     gradient                   ...        0 min,  0.001 sec
 * total energy  :    -9.7100047 Eh     change       -0.6234881E-03 Eh
   gradient norm :     0.0114323 Eh/α   predicted    -0.5598037E-03 ( -10.21%)
   displ. norm   :     0.0099790 α      lambda       -0.1095096E-03
   maximum displ.:     0.0080648 α      in ANC's #3, #1, #2, ...

........................................................................
.............................. CYCLE    5 ..............................
........................................................................
   1     -9.7571525 -0.975715E+01  0.764E-02    2.65       0.0  T
   2     -9.7571536 -0.109085E-05  0.431E-02    2.65       1.3  T
   3     -9.7571539 -0.352307E-06  0.105E-02    2.64       5.5  T
   4     -9.7571540 -0.374809E-07  0.534E-03    2.64      10.8  T
   5     -9.7571540 -0.114383E-07  0.127E-03    2.64      45.5  T
   6     -9.7571540 -0.244034E-09  0.243E-04    2.64     237.3  T
   7     -9.7571540 -0.751363E-10  0.364E-05    2.64    1586.6  T
     SCC iter.                  ...        0 min,  0.000 sec
     gradient                   ...        0 min,  0.000 sec
 * total energy  :    -9.7100709 Eh     change       -0.6623037E-04 Eh
   gradient norm :     0.0024008 Eh/α   predicted    -0.5475910E-04 ( -17.32%)
   displ. norm   :     0.0031898 α      lambda       -0.7646122E-05
   maximum displ.:     0.0024916 α      in ANC's #1, #3, #2, ...

........................................................................
.............................. CYCLE    6 ..............................
........................................................................
   1     -9.7571756 -0.975718E+01  0.253E-02    2.66       0.0  T
   2     -9.7571758 -0.199630E-06  0.138E-02    2.65       4.2  T
   3     -9.7571758 -0.306734E-07  0.425E-03    2.65      13.6  T
   4     -9.7571758 -0.480310E-08  0.162E-03    2.65      35.6  T
   5     -9.7571758 -0.104769E-08  0.416E-04    2.65     138.8  T
   6     -9.7571758 -0.386464E-10  0.305E-05    2.65    1894.3  T
     SCC iter.                  ...        0 min,  0.000 sec
     gradient                   ...        0 min,  0.001 sec
 * total energy  :    -9.7100749 Eh     change       -0.3974808E-05 Eh
   gradient norm :     0.0001799 Eh/α   predicted    -0.3823048E-05 (  -3.82%)
   displ. norm   :     0.0002504 α      lambda       -0.2767316E-07
   maximum displ.:     0.0002462 α      in ANC's #1, #3, #2, ...

   *** GEOMETRY OPTIMIZATION CONVERGED AFTER 6 ITERATIONS ***

------------------------------------------------------------------------
 total energy gain   :        -0.0428575 Eh      -26.8935 kcal/mol
 total RMSD          :         0.1809929 a0        0.0958 Å
 total power (kW/mol):       -18.7537180 (step)********** (real)
------------------------------------------------------------------------

 ANCopt (total)                0 d,  0 h,  0 min,  0.009 sec
 optimizer setup                ...        0 min,  0.000 sec (  0.579%)
 model hessian                  ...        0 min,  0.000 sec (  0.356%)
 ANC generation                 ...        0 min,  0.000 sec (  0.314%)
 coordinate transformation      ...        0 min,  0.000 sec (  0.130%)
 single point calculation       ...        0 min,  0.008 sec ( 93.397%)
 optimization log               ...        0 min,  0.000 sec (  1.462%)
 hessian update                 ...        0 min,  0.000 sec (  0.128%)
 rational function              ...        0 min,  0.000 sec (  1.380%)

================
 final structure:
================
3
 xtb: 6.2.2 (9d81278992624c895f80dd42a50cac0aa55982e2)
O        -0.55793652234206   -0.66439455891817   -0.03288571689173
N        -0.17487203655183    0.71469552684990   -0.01135125769503
N         0.73280955889389   -0.05030096793173    0.04423797458676

 Bond Distances (Angstroems)
 ---------------------------
O1-N2=1.4315         O1-N3=1.4315         N2-O1=1.4315         N2-N3=1.1884         N3-O1=1.4315         N3-N2=1.1884         
 N  N  Rav=1.1884 sigma=0.0000  Rmin=1.1884  Rmax=1.1884     1
 O  N  Rav=1.4315 sigma=0.0000  Rmin=1.4315  Rmax=1.4315     2

 selected bond angles (degree)
 --------------------
N3-O1-N2= 49.05                N3-N2-O1= 65.48                N2-N3-O1= 65.48                

 selected dihedral angles (degree)
 ---------------------------------

           -------------------------------------------------
          |                Final Singlepoint                |
           -------------------------------------------------

          ...................................................
          :                      SETUP                      :
          :.................................................:
          :  # basis functions                  12          :
          :  # atomic orbitals                  12          :
          :  # shells                            6          :
          :  # electrons                        16          :
          :  max. iterations                   250          :
          :  Hamiltonian                  GFN2-xTB          :
          :  restarted?                      false          :
          :  GBSA solvation                  false          :
          :  PC potential                    false          :
          :  electronic temp.          300.0000000     K    :
          :  accuracy                    1.0000000          :
          :  -> integral cutoff          0.2500000E+02      :
          :  -> integral neglect         0.1000000E-07      :
          :  -> SCF convergence          0.1000000E-05 Eh   :
          :  -> wf. convergence          0.1000000E-03 e    :
          :  Broyden damping             0.4000000          :
          ...................................................

 iter      E             dE          RMSdq      gap      omega  full diag
   1     -9.7571758 -0.975718E+01  0.184E-05    2.65       0.0  T
   2     -9.7571758 -0.657252E-13  0.634E-06    2.65    9099.9  T
   3     -9.7571758 -0.355271E-13  0.522E-06    2.65   11070.5  T

   *** convergence criteria satisfied after 3 iterations ***

         #    Occupation            Energy/Eh            Energy/eV
      -------------------------------------------------------------
         1        2.0000           -0.8348201             -22.7166
         2        2.0000           -0.7284919             -19.8233
         3        2.0000           -0.6638897             -18.0654
         4        2.0000           -0.6632045             -18.0467
         5        2.0000           -0.6208449             -16.8940
         6        2.0000           -0.5430122             -14.7761
         7        2.0000           -0.5084628             -13.8360
         8        2.0000           -0.4791135             -13.0373 (HOMO)
         9                         -0.3816866             -10.3862 (LUMO)
        10                         -0.2158782              -5.8743
        11                         -0.1547180              -4.2101
        12                          0.3844901              10.4625
      -------------------------------------------------------------
                  HL-Gap            0.0974269 Eh            2.6511 eV
             Fermi-level           -0.4304001 Eh          -11.7118 eV

 SCC (total)                   0 d,  0 h,  0 min,  0.002 sec
 SCC setup                      ...        0 min,  0.000 sec (  2.869%)
 Dispersion                     ...        0 min,  0.000 sec (  0.220%)
 integral evaluation            ...        0 min,  0.001 sec ( 38.924%)
 zeroth order Hamiltonian       ...        0 min,  0.000 sec (  2.237%)
 iterations                     ...        0 min,  0.000 sec ( 18.899%)
 molecular gradient             ...        0 min,  0.001 sec ( 32.858%)
 printout                       ...        0 min,  0.000 sec (  3.623%)

         :::::::::::::::::::::::::::::::::::::::::::::::::::::
         ::                     SUMMARY                     ::
         :::::::::::::::::::::::::::::::::::::::::::::::::::::
         :: total energy              -9.710074899398 Eh    ::
         :: gradient norm              0.000179933428 Eh/a0 ::
         :: HOMO-LUMO gap              2.651120616521 eV    ::
         ::.................................................::
         :: SCC energy                -9.757175796488 Eh    ::
         :: -> isotropic ES            0.011027905205 Eh    ::
         :: -> anisotropic ES          0.009202307889 Eh    ::
         :: -> anisotropic XC          0.011756954765 Eh    ::
         :: -> dispersion             -0.000713316513 Eh    ::
         :: repulsion energy           0.047100896314 Eh    ::
         :: add. restraining           0.000000000000 Eh    ::
         :::::::::::::::::::::::::::::::::::::::::::::::::::::

           ------------------------------------------------- 
          |                Numerical Hessian                |
           ------------------------------------------------- 
step length          :   0.00500
SCC accuracy         :   0.30000
Hessian scale factor :   1.00000
frozen atoms in %    :   0.00000    0
RMS gradient         :   0.00018
estimated CPU  time      0.00 min
estimated wall time      0.00 min

writing file <hessian>.

 projected vibrational frequencies (cm-1)
eigval :       -0.00    -0.00    -0.00     0.00     0.00     0.00
eigval :      363.05  1109.91  1881.45
           -------------------------------------------------
          |                Property Printout                |
           -------------------------------------------------

    * Orbital Energies and Occupations

         #    Occupation            Energy/Eh            Energy/eV
      -------------------------------------------------------------
         1        2.0000           -0.8348201             -22.7166
         2        2.0000           -0.7284919             -19.8233
         3        2.0000           -0.6638897             -18.0654
         4        2.0000           -0.6632045             -18.0467
         5        2.0000           -0.6208449             -16.8940
         6        2.0000           -0.5430122             -14.7761
         7        2.0000           -0.5084628             -13.8360
         8        2.0000           -0.4791135             -13.0373 (HOMO)
         9                         -0.3816866             -10.3862 (LUMO)
        10                         -0.2158782              -5.8743
        11                         -0.1547180              -4.2101
        12                          0.3844901              10.4625
      -------------------------------------------------------------
                  HL-Gap            0.0974269 Eh            2.6511 eV
             Fermi-level           -0.4304001 Eh          -11.7118 eV

     #   Z        covCN         q      C6AA      α(0)
     1   8 O      1.814    -0.225    17.717     5.684
     2   7 N      1.888     0.113    19.938     6.619
     3   7 N      1.888     0.113    19.938     6.619

 Mol. C6AA /au·bohr⁶  :        172.391106
 Mol. C8AA /au·bohr⁸  :       3697.767669
 Mol. α(0) /au        :         18.923055


Wiberg/Mayer (AO) data.
largest (>0.10) Wiberg bond orders for each atom
          total WBO             WBO to atom ...
     1  O   1.794        N    3 0.897    N    2 0.897
     2  N   2.964        N    3 2.067    O    1 0.897
     3  N   2.964        N    2 2.067    O    1 0.897

MOs/occ written to file <molden.input>


molecular dipole:
                 x           y           z       tot (Debye)
 q only:        0.356       0.424       0.021
   full:        0.329       0.391       0.019       1.299
molecular quadrupole (traceless):
                xx          xy          yy          xz          yz          zz
 q only:        0.052      -0.545      -0.138      -0.001      -0.033       0.085
  q+dip:       -0.551      -0.996      -0.905      -0.120      -0.057       1.457
   full:       -0.775      -0.271      -0.878      -0.147      -0.013       1.653

           -------------------------------------------------
          |                Geometry Summary                 |
           -------------------------------------------------

      molecular mass/u    :       44.0128113
   center of mass at/Å    :       -0.0252607      -0.0300807      -0.0014885
  moments of inertia/u·Å² :        0.9890103E+01   0.1727136E+02   0.2716146E+02
rotational constants/cm⁻¹ :        0.1704495E+01   0.9760455E+00   0.6206453E+00

 * 1 selected distances

     #   Z        #   Z                                     value/Å
     2   7 N      3   7 N                                 1.1883584 (max)

 * 1 distinct bonds (by element types)

   Z      Z             #   av. dist./Å        max./Å        min./Å
   7 N    7 N           1     1.1883584     1.1883584     1.1883584

           -------------------------------------------------
          |               Frequency Printout                |
           -------------------------------------------------
 projected vibrational frequencies (cm-1)
eigval :       -0.00    -0.00    -0.00     0.00     0.00     0.00
eigval :      363.05  1109.91  1881.45
 reduced masses (amu)
   1: 14.23   2: 14.51   3: 14.03   4: 16.00   5: 14.26   6: 15.27   7: 14.47   8: 15.23
   9: 14.05
 IR intensities (amu)
   1:  0.12   2:  0.08   3:  0.11   4:  0.21   5:  0.11   6:  0.12   7:  0.50   8:  0.77
   9:  0.50
 Raman intensities (amu)
   1:  0.00   2:  0.00   3:  0.00   4:  0.00   5:  0.00   6:  0.00   7:  0.00   8:  0.00
   9:  0.00
 output can be read by thermo (or use thermo option).
 writing <g98.out> molden fake output.
 recommended (thermochemical) frequency scaling factor: 1.0
           -------------------------------------------------
          |             Thermodynamic Functions             |
           -------------------------------------------------
Molecule has the following symmetry elements: (C2) 2*(sigma) 
It seems to be the C2v point group

c2v symmetry found (for desy threshold:  0.10E+00) used in thermo

          ...................................................
          :                      SETUP                      :
          :.................................................:
          :  # frequencies                           3      :
          :  # imaginary freq.                       0      :
          :  linear?                             false      :
          :  only rotor calc.                    false      :
          :  symmetry                              c2v      :
          :  rotational number                       2      :
          :  scaling factor                  1.0000000      :
          :  rotor cutoff                   50.0000000 cm⁻¹ :
          :  imag. cutoff                  -20.0000000 cm⁻¹ :
          :.................................................:

    mode    ω/cm⁻¹     T·S(HO)/kcal·mol⁻¹    T·S(FR)/kcal·mol⁻¹   T·S(vib)
   ------------------------------------------------------------------------
   ------------------------------------------------------------------------

   temp. (K)  partition function   enthalpy   heat capacity  entropy
                                   cal/mol     cal/K/mol   cal/K/mol   J/K/mol
 298.15  VIB   1.22                  233.469      1.839      1.171
         ROT  0.260E+04              888.752      2.981     18.609
         INT  0.316E+04             1122.222      4.820     19.780
         TR   0.283E+27             1481.254      4.968     37.255
         TOT                        2603.4755     9.7877    57.0347   238.6332

   temp. (K)  partition function   enthalpy   heat capacity  entropy
                                   cal/mol     cal/K/mol   cal/K/mol   J/K/mol
 120.00  VIB   1.01                   13.539      0.498      0.139
         ROT   664.                  357.707      2.981     15.896
         INT   673.                  371.246      3.479     16.034
         TR   0.721E+26              596.178      4.968     32.735
         TOT                         967.4237     8.4469    48.7698   204.0529

   temp. (K)  partition function   enthalpy   heat capacity  entropy
                                   cal/mol     cal/K/mol   cal/K/mol   J/K/mol
 100.00  VIB   1.01                    5.624      0.295      0.067
         ROT   505.                  298.089      2.981     15.352
         INT   508.                  303.713      3.276     15.419
         TR   0.549E+26              496.815      4.968     31.830
         TOT                         800.5284     8.2445    47.2494   197.6913

   temp. (K)  partition function   enthalpy   heat capacity  entropy
                                   cal/mol     cal/K/mol   cal/K/mol   J/K/mol
  80.00  VIB   1.00                    1.518      0.124      0.022
         ROT   362.                  238.471      2.981     14.687
         INT   362.                  239.989      3.105     14.709
         TR   0.393E+26              397.452      4.968     30.722
         TOT                         637.4410     8.0731    45.4309   190.0831

   temp. (K)  partition function   enthalpy   heat capacity  entropy
                                   cal/mol     cal/K/mol   cal/K/mol   J/K/mol
  60.00  VIB   1.00                    0.172      0.025      0.003
         ROT   235.                  178.853      2.981     13.829
         INT   235.                  179.025      3.006     13.833
         TR   0.255E+26              298.089      4.968     29.293
         TOT                         477.1144     7.9740    43.1261   180.4395

   temp. (K)  partition function   enthalpy   heat capacity  entropy
                                   cal/mol     cal/K/mol   cal/K/mol   J/K/mol
  40.00  VIB   1.00                    0.002      0.001     -0.000
         ROT   128.                  119.236      2.981     12.621
         INT   128.                  119.238      2.982     12.621
         TR   0.139E+26              198.726      4.968     27.280
         TOT                         317.9638     7.9498    39.9007   166.9446

   temp. (K)  partition function   enthalpy   heat capacity  entropy
                                   cal/mol     cal/K/mol   cal/K/mol   J/K/mol
  20.00  VIB   1.00                    0.000      0.000     -0.000
         ROT   45.2                   59.618      2.981     10.555
         INT   45.2                   59.618      2.981     10.554
         TR   0.491E+25               99.363      4.968     23.838
         TOT                         158.9808     7.9490    34.3922   143.8971

   temp. (K)  partition function   enthalpy   heat capacity  entropy
                                   cal/mol     cal/K/mol   cal/K/mol   J/K/mol
  10.00  VIB   1.00                    0.000      0.000     -0.001
         ROT   16.0                   29.809      2.981      8.488
         INT   16.0                   29.809      2.981      8.488
         TR   0.174E+25               49.681      4.968     20.396
         TOT                          79.4904     7.9490    28.8838   120.8499

       T/K    H(0)-H(T)+PV         H(T)/Eh          T*S/Eh         G(T)/Eh
   ------------------------------------------------------------------------
    298.15    0.414890E-02    0.117908E-01    0.270990E-01   -0.153082E-01
    120.00    0.154169E-02    0.918357E-02    0.932636E-02   -0.142790E-03
    100.00    0.127572E-02    0.891760E-02    0.752966E-02    0.138794E-02
     80.00    0.101583E-02    0.865771E-02    0.579191E-02    0.286580E-02
     60.00    0.760330E-03    0.840221E-02    0.412355E-02    0.427866E-02
     40.00    0.506708E-03    0.814859E-02    0.254343E-02    0.560516E-02
     20.00    0.253352E-03    0.789523E-02    0.109615E-02    0.679908E-02
     10.00    0.126676E-03    0.776856E-02    0.460293E-03    0.730826E-02 (used)
   ------------------------------------------------------------------------

         :::::::::::::::::::::::::::::::::::::::::::::::::::::
         ::                  THERMODYNAMIC                  ::
         :::::::::::::::::::::::::::::::::::::::::::::::::::::
         :: total free energy          -9.702766635299 Eh   ::
         ::.................................................::
         :: total energy               -9.710074899398 Eh   ::
         :: zero point energy           0.007641880861 Eh   ::
         :: G(RRHO) w/o ZPVE           -0.000333616762 Eh   ::
         :: G(RRHO) contrib.            0.007308264099 Eh   ::
         :::::::::::::::::::::::::::::::::::::::::::::::::::::

optimized geometry written to: xtbopt.xyz


           -------------------------------------------------
          | TOTAL ENERGY               -9.710074899398 Eh   |
          | TOTAL ENTHALPY             -9.702306342522 Eh   |
          | TOTAL FREE ENERGY          -9.702766635299 Eh   |
          | GRADIENT NORM               0.000179933426 Eh/α |
          | HOMO-LUMO GAP               2.651120617169 eV   |
           -------------------------------------------------

------------------------------------------------------------------------
 * finished run on 2020/05/12 at 11:43:54.802     
------------------------------------------------------------------------
 total:
 * wall-time:     0 d,  0 h,  0 min,  0.051 sec
 *  cpu-time:     0 d,  0 h,  0 min,  0.050 sec
 * ratio c/w:     0.987 speedup
 SCF:
 * wall-time:     0 d,  0 h,  0 min,  0.002 sec
 *  cpu-time:     0 d,  0 h,  0 min,  0.002 sec
 * ratio c/w:     1.000 speedup
 ANC optimizer:
 * wall-time:     0 d,  0 h,  0 min,  0.011 sec
 *  cpu-time:     0 d,  0 h,  0 min,  0.011 sec
 * ratio c/w:     1.000 speedup
 numerical hessian:
 * wall-time:     0 d,  0 h,  0 min,  0.023 sec
 *  cpu-time:     0 d,  0 h,  0 min,  0.023 sec
 * ratio c/w:     0.999 speedup

