 Entering Gaussian System
 *********************************************
 Gaussian 98:
 frequency output generated by the xtb code
 *********************************************
                         Standard orientation:
 --------------------------------------------------------------------
  Center     Atomic     Atomic              Coordinates (Angstroms)
  Number     Number      Type              X           Y           Z
 --------------------------------------------------------------------
    1          8             0       -0.557940   -0.664392   -0.032883
    2          7             0       -0.174868    0.714696   -0.011352
    3          7             0        0.732809   -0.050305    0.044236
 --------------------------------------------------------------------
     1 basis functions        1 primitive gaussians
     1 alpha electrons        1 beta electrons

 Harmonic frequencies (cm**-1), IR intensities (KM/Mole),
 Raman scattering activities (A**4/amu), Raman depolarization ratios,
 reduced masses (AMU), force constants (mDyne/A) and normal coordinates:
                      1                      2                      3
                        a                      a                      a 
 Frequencies --   363.0460              1109.9064              1881.4456
 Red. masses --    14.4685                15.2345                14.0472
 Frc consts  --     0.0000                 0.0000                 0.0000
 IR Inten    --     0.5048                 0.7736                 0.5009
 Raman Activ --     0.0000                 0.0000                 0.0000
 Depolar     --     0.0000                 0.0000                 0.0000
 Atom AN      X      Y      Z        X      Y      Z        X      Y      Z
   1   8    -0.37   0.31  -0.02    -0.50  -0.60  -0.03    -0.09  -0.11  -0.01
   2   7    -0.17  -0.60  -0.01     0.37   0.24   0.02    -0.48   0.51  -0.03
   3   7     0.56   0.27   0.03     0.17   0.40   0.01     0.58  -0.39   0.04
