[Molden Format]
[Title]
[Atoms] AU
O      1     8 -0.10543539151358E+01 -0.12555182264541E+01 -0.62139120903178E-01
N      2     7 -0.33045322854419E+00  0.13505803757618E+01 -0.21451969903985E-01
N      3     7  0.13848090334126E+01 -0.95062149314240E-01  0.83592980526516E-01
[GTO]
           1 0
 s           4   1.0000000000000000     
   69.137961906196551      -0.20478756370077797     
   11.906129132707308      -0.24997023136827334     
  0.95670827744340703       0.40025880240639616     
  0.36462520496073686       0.15952206667693555     
 p           4   1.0000000000000000     
   8.2124193257781641        1.1321556799186829     
   2.1293576997098116        1.0476840782254817     
  0.75066448202360914       0.54956508217158984     
  0.29885246543283073        8.2908486592766617E-002

           2 0
 s           4   1.0000000000000000     
   63.594024466941008      -0.19234388414721629     
   10.951417231523665      -0.23478107924953728     
  0.87999310257376984       0.37593753901700888     
  0.33538715296521110       0.14982889271862770     
 p           4   1.0000000000000000     
   7.2965040481495080       0.97658666315667420     
   1.8918745450712575       0.90372226730345739     
  0.66694432110824120       0.47404958461536373     
  0.26552202674130870        7.1516067715011844E-002

           3 0
 s           4   1.0000000000000000     
   63.594024466941008      -0.19234388414721629     
   10.951417231523665      -0.23478107924953728     
  0.87999310257376984       0.37593753901700888     
  0.33538715296521110       0.14982889271862770     
 p           4   1.0000000000000000     
   7.2965040481495080       0.97658666315667420     
   1.8918745450712575       0.90372226730345739     
  0.66694432110824120       0.47404958461536373     
  0.26552202674130870        7.1516067715011844E-002

[MO]
Sym=     1a
Ene=  -0.83482005809377458     
Spin= Alpha
Occup=     2.00000000
           1  0.37444970127412774     
           2  0.15101561731814825     
           3  0.17982781219319616     
           4   8.9002720453928881E-003
           5  0.31956477343555428     
           6   6.0443805621763658E-002
           7 -0.24936830829888021     
           8   3.9265520234836176E-003
           9  0.31956582246119941     
          10 -0.25559128365029221     
          11   1.6988650576887900E-002
          12  -1.5427857549397090E-002
Sym=     2a
Ene=  -0.72849186961215306     
Spin= Alpha
Occup=     2.00000000
           1 -0.67819342419722972     
           2   6.9776096529863857E-002
           3   8.3090959361291988E-002
           4   4.1123885044448711E-003
           5  0.28478880342845730     
           6  0.29871190207488330     
           7   8.0290493854849099E-002
           8   1.7917156070665206E-002
           9  0.28478683546724831     
          10   2.7850682050916759E-002
          11  0.30857768461866109     
          12   1.3292513968605256E-003
Sym=     3a
Ene=  -0.66388965831709557     
Spin= Alpha
Occup=     2.00000000
           1  -3.3387925521577059E-006
           2  0.41008247521898555     
           3 -0.34561847577716992     
           4   2.5114784503605457E-002
           5 -0.44758670148864266     
           6  0.27407513033591918     
           7  -4.1662041668936297E-003
           8   1.6528545815639839E-002
           9  0.44758838071363799     
          10   5.0997555194813554E-002
          11 -0.26980739544053617     
          12   3.3811846875598755E-003
Sym=     4a
Ene=  -0.66320454536262252     
Spin= Alpha
Occup=     2.00000000
           1   1.1814016722038657E-008
           2  -2.7527111275221127E-002
           3   5.1816646946361232E-004
           4  0.45659680812089298     
           5   7.8127507236793876E-007
           6  -3.1855313600729136E-002
           7   5.9890091522335899E-004
           8  0.52839447008681106     
           9  -7.6868476800976709E-007
          10  -3.1854995136368164E-002
          11   5.9935405980515364E-004
          12  0.52839599138176940     
Sym=     5a
Ene=  -0.62084487207522809     
Spin= Alpha
Occup=     2.00000000
           1  0.53916335541615379     
           2 -0.36430728948267516     
           3 -0.43381587955914663     
           4  -2.1470920847613640E-002
           5  0.10242954569883811     
           6  0.31750975627628691     
           7  0.22888505260549560     
           8   1.8882003437201152E-002
           9  0.10243170514459241     
          10  0.17077359763509031     
          11  0.35255493732745979     
          12   9.8956858157728672E-003
Sym=     6a
Ene=  -0.54301224588192065     
Spin= Alpha
Occup=     2.00000000
           1  -1.8460842306504131E-007
           2  0.44242122417035484     
           3 -0.37287657962363230     
           4   2.7094477720156881E-002
           5  0.42058484961373493     
           6   3.1946639185352725E-002
           7  0.41376584347067097     
           8   1.4569557115902165E-003
           9 -0.42057909110767483     
          10 -0.40145805295336495     
          11 -0.10233670230982089     
          12  -2.4086323300777753E-002
Sym=     7a
Ene=  -0.50846283527236769     
Spin= Alpha
Occup=     2.00000000
           1   2.1773700195032351E-002
           2  -7.3191939333969672E-003
           3  -8.7091676908278258E-003
           4  -4.3143572349776531E-004
           5  0.45888645220666396     
           6 -0.41573921875146935     
           7  0.38352960685954868     
           8  -2.5497987126599307E-002
           9  0.45888938992151901     
          10  0.44833711611466470     
          11 -0.34471570466579465     
          12   2.7419218757847124E-002
Sym=     8a
Ene=  -0.47911352267978147     
Spin= Alpha
Occup=     2.00000000
           1   3.5460218724584671E-008
           2  -5.4233453713244603E-002
           3   1.0196576938189274E-003
           4  0.89960207380311263     
           5   2.0616472508363164E-008
           6   2.2508957692591015E-002
           7  -4.2318951808292669E-004
           8 -0.37336986118423587     
           9   3.5225034996940346E-008
          10   2.2508781620735687E-002
          11  -4.2322437406405147E-004
          12 -0.37336602251202838     
Sym=     9a
Ene=  -0.38168663271085246     
Spin= Alpha
Occup=     0.00000000
           1  -1.2506803155464596E-009
           2   1.9064160927821534E-007
           3  -7.1391346218308293E-009
           4  -3.1513271725818482E-006
           5  -2.3163673323657161E-009
           6   4.8046501809721705E-002
           7  -9.0335083779042734E-004
           8 -0.79697557928881091     
           9  -1.1936714774609285E-008
          10  -4.8046564444113107E-002
          11   9.0335415782059946E-004
          12  0.79697648668951238     
Sym=    10a
Ene=  -0.21587816616453440     
Spin= Alpha
Occup=     0.00000000
           1   9.7848768746595802E-006
           2 -0.51355958315030470     
           3  0.43285693416294863     
           4  -3.1451099704431003E-002
           5  -8.4801648326173915E-002
           6  0.55306545986217059     
           7  0.48623313264635043     
           8   3.2790990665650922E-002
           9   8.4791863094034192E-002
          10 -0.38354320761910649     
          11 -0.62907954298544544     
          12  -2.2409256657673838E-002
Sym=    11a
Ene=  -0.15471802822367398     
Spin= Alpha
Occup=     0.00000000
           1  0.52767051593008707     
           2  0.58430802303601781     
           3  0.69576735139958812     
           4   3.4436988181633689E-002
           5 -0.26200179037160787     
           6  0.23637096637903049     
           7  0.47724542473774045     
           8   1.3708919479840745E-002
           9 -0.26200551707587044     
          10  0.42892899277907987     
          11  0.31499804477688365     
          12   2.5501385606117550E-002
Sym=    12a
Ene=   0.38449005707687206     
Spin= Alpha
Occup=     0.00000000
           1   1.1506126010490258E-006
           2   8.6520476043158420E-002
           3  -7.2917790573473112E-002
           4   5.2986265067162365E-003
           5  0.77312755900173180     
           6  0.71426261222780385     
           7 -0.65323892779217574     
           8   4.3800483747924293E-002
           9 -0.77312860335380484     
          10  0.76466731365261653     
          11 -0.59321790210495429     
          12   4.6771152324508326E-002
