 Entering Gaussian System, Link 0=g16
 Initial command:
 /applis/site/cecic/gaussian16/B.01/nehalem/g16/l1.exe "/bettik/tinaccil/g16/12753932_O/Gau-103501.inp" -scrdir="/bettik/tinaccil/g16/12753932_O/"
 Entering Link 1 = /applis/site/cecic/gaussian16/B.01/nehalem/g16/l1.exe PID=    103505.
  
 Copyright (c) 1988-2017, Gaussian, Inc.  All Rights Reserved.
  
 This is part of the Gaussian(R) 16 program.  It is based on
 the Gaussian(R) 09 system (copyright 2009, Gaussian, Inc.),
 the Gaussian(R) 03 system (copyright 2003, Gaussian, Inc.),
 the Gaussian(R) 98 system (copyright 1998, Gaussian, Inc.),
 the Gaussian(R) 94 system (copyright 1995, Gaussian, Inc.),
 the Gaussian 92(TM) system (copyright 1992, Gaussian, Inc.),
 the Gaussian 90(TM) system (copyright 1990, Gaussian, Inc.),
 the Gaussian 88(TM) system (copyright 1988, Gaussian, Inc.),
 the Gaussian 86(TM) system (copyright 1986, Carnegie Mellon
 University), and the Gaussian 82(TM) system (copyright 1983,
 Carnegie Mellon University). Gaussian is a federally registered
 trademark of Gaussian, Inc.
  
 This software contains proprietary and confidential information,
 including trade secrets, belonging to Gaussian, Inc.
  
 This software is provided under written license and may be
 used, copied, transmitted, or stored only in accord with that
 written license.
  
 The following legend is applicable only to US Government
 contracts under FAR:
  
                    RESTRICTED RIGHTS LEGEND
  
 Use, reproduction and disclosure by the US Government is
 subject to restrictions as set forth in subparagraphs (a)
 and (c) of the Commercial Computer Software - Restricted
 Rights clause in FAR 52.227-19.
  
 Gaussian, Inc.
 340 Quinnipiac St., Bldg. 40, Wallingford CT 06492
  
  
 ---------------------------------------------------------------
 Warning -- This program may not be used in any manner that
 competes with the business of Gaussian, Inc. or will provide
 assistance to any competitor of Gaussian, Inc.  The licensee
 of this program is prohibited from giving any competitor of
 Gaussian, Inc. access to this program.  By using this program,
 the user acknowledges that Gaussian, Inc. is engaged in the
 business of creating and licensing software in the field of
 computational chemistry and represents and warrants to the
 licensee that it is not a competitor of Gaussian, Inc. and that
 it will not use this program in any manner prohibited above.
 ---------------------------------------------------------------
  

 Cite this work as:
 Gaussian 16, Revision B.01,
 M. J. Frisch, G. W. Trucks, H. B. Schlegel, G. E. Scuseria, 
 M. A. Robb, J. R. Cheeseman, G. Scalmani, V. Barone, 
 G. A. Petersson, H. Nakatsuji, X. Li, M. Caricato, A. V. Marenich, 
 J. Bloino, B. G. Janesko, R. Gomperts, B. Mennucci, H. P. Hratchian, 
 J. V. Ortiz, A. F. Izmaylov, J. L. Sonnenberg, D. Williams-Young, 
 F. Ding, F. Lipparini, F. Egidi, J. Goings, B. Peng, A. Petrone, 
 T. Henderson, D. Ranasinghe, V. G. Zakrzewski, J. Gao, N. Rega, 
 G. Zheng, W. Liang, M. Hada, M. Ehara, K. Toyota, R. Fukuda, 
 J. Hasegawa, M. Ishida, T. Nakajima, Y. Honda, O. Kitao, H. Nakai, 
 T. Vreven, K. Throssell, J. A. Montgomery, Jr., J. E. Peralta, 
 F. Ogliaro, M. J. Bearpark, J. J. Heyd, E. N. Brothers, K. N. Kudin, 
 V. N. Staroverov, T. A. Keith, R. Kobayashi, J. Normand, 
 K. Raghavachari, A. P. Rendell, J. C. Burant, S. S. Iyengar, 
 J. Tomasi, M. Cossi, J. M. Millam, M. Klene, C. Adamo, R. Cammi, 
 J. W. Ochterski, R. L. Martin, K. Morokuma, O. Farkas, 
 J. B. Foresman, and D. J. Fox, Gaussian, Inc., Wallingford CT, 2016.
 
 ******************************************
 Gaussian 16:  ES64L-G16RevB.01 20-Dec-2017
                 5-Oct-2020 
 ******************************************
 %nosave
 %nproc=8
 Will use up to    8 processors via shared memory.
 %mem=2gb
 %chk=input
 ------------------------
 #P ROCCSD(T)/aug-cc-pvtz
 ------------------------
 1/38=1,172=1/1;
 2/12=2,17=6,18=5,40=1/2;
 3/5=16,6=1,7=10,11=2,25=1,30=1,116=101/1,2,3;
 4//1;
 5/5=2,38=5/2;
 8/5=-1,6=4,9=120000,10=1/1,4;
 9/5=7,14=2/13;
 6/7=2,8=2,9=2,10=2/1;
 99/5=1,9=1/99;
 Leave Link    1 at Mon Oct  5 21:27:05 2020, MaxMem=   268435456 cpu:               1.0 elap:               0.2
 (Enter /applis/site/cecic/gaussian16/B.01/nehalem/g16/l101.exe)
 -----
 Title
 -----
 Symbolic Z-matrix:
 Charge =  0 Multiplicity = 3
 O
 
 ITRead=  0
 MicOpt= -1
 NAtoms=      1 NQM=        1 NQMF=       0 NMMI=      0 NMMIF=      0
                NMic=       0 NMicF=      0.
                    Isotopes and Nuclear Properties:
 (Nuclear quadrupole moments (NQMom) in fm**2, nuclear magnetic moments (NMagM)
  in nuclear magnetons)

  Atom         1
 IAtWgt=          16
 AtmWgt=  15.9949146
 NucSpn=           0
 AtZEff=  -0.0000000
 NQMom=    0.0000000
 NMagM=    0.0000000
 AtZNuc=   8.0000000
 Leave Link  101 at Mon Oct  5 21:27:05 2020, MaxMem=   268435456 cpu:               1.8 elap:               0.3
 (Enter /applis/site/cecic/gaussian16/B.01/nehalem/g16/l202.exe)
                          Input orientation:                          
 ---------------------------------------------------------------------
 Center     Atomic      Atomic             Coordinates (Angstroms)
 Number     Number       Type             X           Y           Z
 ---------------------------------------------------------------------
      1          8           0        0.000000    0.000000    0.000000
 ---------------------------------------------------------------------
 Stoichiometry    O(3)
 Framework group  OH[O(O)]
 Deg. of freedom     0
 Full point group                 OH      NOp  48
 Largest Abelian subgroup         D2H     NOp   8
 Largest concise Abelian subgroup C1      NOp   1
                         Standard orientation:                         
 ---------------------------------------------------------------------
 Center     Atomic      Atomic             Coordinates (Angstroms)
 Number     Number       Type             X           Y           Z
 ---------------------------------------------------------------------
      1          8           0        0.000000    0.000000    0.000000
 ---------------------------------------------------------------------
 Leave Link  202 at Mon Oct  5 21:27:05 2020, MaxMem=   268435456 cpu:               0.8 elap:               0.1
 (Enter /applis/site/cecic/gaussian16/B.01/nehalem/g16/l301.exe)
 Standard basis: Aug-CC-pVTZ (5D, 7F)
 Ernie: Thresh=  0.10000D-02 Tol=  0.10000D-05 Strict=F.
 Ernie:  3 primitive shells out of 30 were deleted.
 There are    14 symmetry adapted cartesian basis functions of AG  symmetry.
 There are     3 symmetry adapted cartesian basis functions of B1G symmetry.
 There are     3 symmetry adapted cartesian basis functions of B2G symmetry.
 There are     3 symmetry adapted cartesian basis functions of B3G symmetry.
 There are     2 symmetry adapted cartesian basis functions of AU  symmetry.
 There are    10 symmetry adapted cartesian basis functions of B1U symmetry.
 There are    10 symmetry adapted cartesian basis functions of B2U symmetry.
 There are    10 symmetry adapted cartesian basis functions of B3U symmetry.
 There are    11 symmetry adapted basis functions of AG  symmetry.
 There are     3 symmetry adapted basis functions of B1G symmetry.
 There are     3 symmetry adapted basis functions of B2G symmetry.
 There are     3 symmetry adapted basis functions of B3G symmetry.
 There are     2 symmetry adapted basis functions of AU  symmetry.
 There are     8 symmetry adapted basis functions of B1U symmetry.
 There are     8 symmetry adapted basis functions of B2U symmetry.
 There are     8 symmetry adapted basis functions of B3U symmetry.
    46 basis functions,    72 primitive gaussians,    55 cartesian basis functions
     5 alpha electrons        3 beta electrons
       nuclear repulsion energy         0.0000000000 Hartrees.
 IExCor=    0 DFT=F Ex=HF Corr=None ExCW=0 ScaHFX=  1.000000
 ScaDFX=  1.000000  1.000000  1.000000  1.000000 ScalE2=  1.000000  1.000000
 IRadAn=      5 IRanWt=     -1 IRanGd=            0 ICorTp=0 IEmpDi=  4
 NAtoms=    1 NActive=    1 NUniq=    1 SFac= 1.00D+00 NAtFMM=   60 NAOKFM=F Big=F
 Integral buffers will be    131072 words long.
 Raffenetti 2 integral format.
 Two-electron integral symmetry is turned on.
 Leave Link  301 at Mon Oct  5 21:27:05 2020, MaxMem=   268435456 cpu:               0.5 elap:               0.1
 (Enter /applis/site/cecic/gaussian16/B.01/nehalem/g16/l302.exe)
 NPDir=0 NMtPBC=     1 NCelOv=     1 NCel=       1 NClECP=     1 NCelD=      1
         NCelK=      1 NCelE2=     1 NClLst=     1 CellRange=     0.0.
 One-electron integrals computed using PRISM.
 One-electron integral symmetry used in STVInt
 NBasis=    46 RedAO= T EigKep=  3.38D-02  NBF=    11     3     3     3     2     8     8     8
 NBsUse=    46 1.00D-06 EigRej= -1.00D+00 NBFU=    11     3     3     3     2     8     8     8
 Leave Link  302 at Mon Oct  5 21:27:06 2020, MaxMem=   268435456 cpu:               1.3 elap:               0.2
 (Enter /applis/site/cecic/gaussian16/B.01/nehalem/g16/l303.exe)
 DipDrv:  MaxL=1.
 Leave Link  303 at Mon Oct  5 21:27:06 2020, MaxMem=   268435456 cpu:               0.6 elap:               0.1
 (Enter /applis/site/cecic/gaussian16/B.01/nehalem/g16/l401.exe)
 ExpMin= 5.97D-02 ExpMax= 1.53D+04 ExpMxC= 5.22D+02 IAcc=3 IRadAn=         5 AccDes= 0.00D+00
 Harris functional with IExCor=  205 and IRadAn=       5 diagonalized for initial guess.
 HarFok:  IExCor=  205 AccDes= 0.00D+00 IRadAn=         5 IDoV= 1 UseB2=F ITyADJ=14
 ICtDFT=  3500011 ScaDFX=  1.000000  1.000000  1.000000  1.000000
 FoFCou: FMM=F IPFlag=           0 FMFlag=      100000 FMFlg1=           0
         NFxFlg=           0 DoJE=T BraDBF=F KetDBF=T FulRan=T
         wScrn=  0.000000 ICntrl=       500 IOpCl=  0 I1Cent=   200000004 NGrid=           0
         NMat0=    1 NMatS0=      1 NMatT0=    0 NMatD0=    1 NMtDS0=    0 NMtDT0=    0
 Petite list used in FoFCou.
 Harris En= -74.6209483166753    
 JPrj=0 DoOrth=F DoCkMO=F.
 Initial guess orbital symmetries:
       Occupied  (A1G) (A1G) (T1U) (T1U) (T1U)
       Virtual   (A1G) (T1U) (T1U) (T1U) (T2G) (T2G) (T2G) (EG)
                 (EG) (T1U) (T1U) (T1U) (A1G) (T2U) (T2U) (T2U)
                 (A2U) (T1U) (T1U) (T1U) (T2G) (T2G) (T2G) (EG)
                 (EG) (T1U) (T1U) (T1U) (T2U) (T2U) (T2U) (A2U)
                 (T1U) (T1U) (T1U) (T2G) (T2G) (T2G) (EG) (EG)
                 (A1G)
 Leave Link  401 at Mon Oct  5 21:27:06 2020, MaxMem=   268435456 cpu:               2.1 elap:               0.3
 (Enter /applis/site/cecic/gaussian16/B.01/nehalem/g16/l502.exe)
 Keep R1 and R2 ints in memory in symmetry-blocked form, NReq=4488473.
 FoFCou: FMM=F IPFlag=           0 FMFlag=           0 FMFlg1=           0
         NFxFlg=           0 DoJE=F BraDBF=F KetDBF=F FulRan=T
         wScrn=  0.000000 ICntrl=       600 IOpCl=  0 I1Cent=           0 NGrid=           0
         NMat0=    1 NMatS0=   1081 NMatT0=    0 NMatD0=    1 NMtDS0=    0 NMtDT0=    0
 Petite list used in FoFCou.
 Restricted open shell SCF:
 Using DIIS extrapolation, IDIIS=  1040.
 NGot=   268435456 LenX=   268267006 LenY=   268263540
 Requested convergence on RMS density matrix=1.00D-08 within 128 cycles.
 Requested convergence on MAX density matrix=1.00D-06.
 Requested convergence on             energy=1.00D-06.
 No special actions if energy rises.

 Cycle   1  Pass 1  IDiag  1:
 Density matrix breaks symmetry, PCut= 1.00D-07
 Density has only Abelian symmetry.
 E= -74.7880450406032    
 DIIS: error= 7.44D-02 at cycle   1 NSaved=   1.
 NSaved= 1 IEnMin= 1 EnMin= -74.7880450406032     IErMin= 1 ErrMin= 7.44D-02
 ErrMax= 7.44D-02  0.00D+00 EMaxC= 1.00D-01 BMatC= 8.16D-02 BMatP= 8.16D-02
 IDIUse=3 WtCom= 2.56D-01 WtEn= 7.44D-01
 Coeff-Com:  0.100D+01
 Coeff-En:   0.100D+01
 Coeff:      0.100D+01
 Gap=     0.368 Goal=   None    Shift=    0.000
 GapD=    0.368 DampG=1.000 DampE=0.500 DampFc=0.5000 IDamp=-1.
 Damping current iteration by 5.00D-01
 RMSDP=2.96D-03 MaxDP=5.55D-02              OVMax= 1.17D-01

 Cycle   2  Pass 1  IDiag  1:
 Density matrix breaks symmetry, PCut= 1.00D-07
 Density has only Abelian symmetry.
 E= -74.7941054497749     Delta-E=       -0.006060409172 Rises=F Damp=T
 DIIS: error= 3.63D-02 at cycle   2 NSaved=   2.
 NSaved= 2 IEnMin= 2 EnMin= -74.7941054497749     IErMin= 2 ErrMin= 3.63D-02
 ErrMax= 3.63D-02  0.00D+00 EMaxC= 1.00D-01 BMatC= 2.03D-02 BMatP= 8.16D-02
 IDIUse=3 WtCom= 6.37D-01 WtEn= 3.63D-01
 Coeff-Com: -0.487D+00 0.149D+01
 Coeff-En:   0.238D+00 0.762D+00
 Coeff:     -0.224D+00 0.122D+01
 Gap=     0.322 Goal=   None    Shift=    0.000
 RMSDP=2.92D-03 MaxDP=6.08D-02 DE=-6.06D-03 OVMax= 1.55D-01

 Cycle   3  Pass 1  IDiag  1:
 Density matrix breaks symmetry, PCut= 1.00D-07
 Density has only Abelian symmetry.
 E= -74.7910315025728     Delta-E=        0.003073947202 Rises=F Damp=F
 DIIS: error= 3.30D-02 at cycle   3 NSaved=   3.
 NSaved= 3 IEnMin= 2 EnMin= -74.7941054497749     IErMin= 3 ErrMin= 3.30D-02
 ErrMax= 3.30D-02  0.00D+00 EMaxC= 1.00D-01 BMatC= 1.14D-02 BMatP= 2.03D-02
 IDIUse=3 WtCom= 6.70D-01 WtEn= 3.30D-01
 Coeff-Com: -0.443D+00 0.848D+00 0.595D+00
 Coeff-En:   0.000D+00 0.566D+00 0.434D+00
 Coeff:     -0.297D+00 0.755D+00 0.542D+00
 Gap=     0.345 Goal=   None    Shift=    0.000
 RMSDP=2.18D-03 MaxDP=4.64D-02 DE= 3.07D-03 OVMax= 8.36D-02

 Cycle   4  Pass 1  IDiag  1:
 Density matrix breaks symmetry, PCut= 1.00D-07
 Density has only Abelian symmetry.
 E= -74.8056136155699     Delta-E=       -0.014582112997 Rises=F Damp=F
 DIIS: error= 7.48D-03 at cycle   4 NSaved=   4.
 NSaved= 4 IEnMin= 4 EnMin= -74.8056136155699     IErMin= 4 ErrMin= 7.48D-03
 ErrMax= 7.48D-03  0.00D+00 EMaxC= 1.00D-01 BMatC= 6.08D-04 BMatP= 1.14D-02
 IDIUse=3 WtCom= 9.25D-01 WtEn= 7.48D-02
 Coeff-Com: -0.246D+00 0.460D+00 0.223D+00 0.563D+00
 Coeff-En:   0.000D+00 0.000D+00 0.000D+00 0.100D+01
 Coeff:     -0.227D+00 0.425D+00 0.206D+00 0.595D+00
 Gap=     0.340 Goal=   None    Shift=    0.000
 RMSDP=2.12D-04 MaxDP=3.80D-03 DE=-1.46D-02 OVMax= 8.52D-03

 Cycle   5  Pass 1  IDiag  1:
 Density matrix breaks symmetry, PCut= 1.00D-07
 Density has only Abelian symmetry.
 E= -74.8061148434153     Delta-E=       -0.000501227845 Rises=F Damp=F
 DIIS: error= 5.53D-03 at cycle   5 NSaved=   5.
 NSaved= 5 IEnMin= 5 EnMin= -74.8061148434153     IErMin= 5 ErrMin= 5.53D-03
 ErrMax= 5.53D-03  0.00D+00 EMaxC= 1.00D-01 BMatC= 2.65D-04 BMatP= 6.08D-04
 IDIUse=3 WtCom= 9.45D-01 WtEn= 5.53D-02
 Coeff-Com: -0.135D+00 0.259D+00 0.105D+00-0.591D+00 0.136D+01
 Coeff-En:   0.000D+00 0.000D+00 0.000D+00 0.000D+00 0.100D+01
 Coeff:     -0.127D+00 0.245D+00 0.989D-01-0.558D+00 0.134D+01
 Gap=     0.339 Goal=   None    Shift=    0.000
 RMSDP=1.42D-04 MaxDP=2.76D-03 DE=-5.01D-04 OVMax= 6.14D-03

 Cycle   6  Pass 1  IDiag  1:
 Density matrix breaks symmetry, PCut= 1.00D-07
 Density has only Abelian symmetry.
 E= -74.8063499606863     Delta-E=       -0.000235117271 Rises=F Damp=F
 DIIS: error= 3.32D-03 at cycle   6 NSaved=   6.
 NSaved= 6 IEnMin= 6 EnMin= -74.8063499606863     IErMin= 6 ErrMin= 3.32D-03
 ErrMax= 3.32D-03  0.00D+00 EMaxC= 1.00D-01 BMatC= 1.00D-04 BMatP= 2.65D-04
 IDIUse=3 WtCom= 9.67D-01 WtEn= 3.32D-02
 Coeff-Com:  0.400D-01-0.660D-01-0.840D-01-0.265D+00-0.698D+00 0.207D+01
 Coeff-En:   0.000D+00 0.000D+00 0.000D+00 0.000D+00 0.000D+00 0.100D+01
 Coeff:      0.386D-01-0.638D-01-0.812D-01-0.256D+00-0.675D+00 0.204D+01
 Gap=     0.334 Goal=   None    Shift=    0.000
 RMSDP=3.47D-04 MaxDP=7.21D-03 DE=-2.35D-04 OVMax= 1.49D-02

 Cycle   7  Pass 1  IDiag  1:
 Density matrix breaks symmetry, PCut= 1.00D-07
 Density has only Abelian symmetry.
 E= -74.8064888760777     Delta-E=       -0.000138915391 Rises=F Damp=F
 DIIS: error= 1.05D-03 at cycle   7 NSaved=   7.
 NSaved= 7 IEnMin= 7 EnMin= -74.8064888760777     IErMin= 7 ErrMin= 1.05D-03
 ErrMax= 1.05D-03  0.00D+00 EMaxC= 1.00D-01 BMatC= 1.24D-05 BMatP= 1.00D-04
 IDIUse=3 WtCom= 9.89D-01 WtEn= 1.05D-02
 Coeff-Com:  0.584D-02-0.107D-01-0.143D-02 0.283D-01-0.265D+00 0.536D+00
 Coeff-Com:  0.708D+00
 Coeff-En:   0.000D+00 0.000D+00 0.000D+00 0.000D+00 0.000D+00 0.126D+00
 Coeff-En:   0.874D+00
 Coeff:      0.578D-02-0.106D-01-0.141D-02 0.280D-01-0.262D+00 0.531D+00
 Coeff:      0.709D+00
 Gap=     0.336 Goal=   None    Shift=    0.000
 RMSDP=8.73D-05 MaxDP=1.90D-03 DE=-1.39D-04 OVMax= 3.50D-03

 Cycle   8  Pass 1  IDiag  1:
 Density matrix breaks symmetry, PCut= 1.00D-07
 Density has only Abelian symmetry.
 E= -74.8065081584067     Delta-E=       -0.000019282329 Rises=F Damp=F
 DIIS: error= 1.31D-04 at cycle   8 NSaved=   8.
 NSaved= 8 IEnMin= 8 EnMin= -74.8065081584067     IErMin= 8 ErrMin= 1.31D-04
 ErrMax= 1.31D-04  0.00D+00 EMaxC= 1.00D-01 BMatC= 1.65D-07 BMatP= 1.24D-05
 IDIUse=3 WtCom= 9.99D-01 WtEn= 1.31D-03
 Coeff-Com:  0.737D-03-0.165D-02-0.530D-03 0.799D-02 0.421D-01-0.995D-01
 Coeff-Com: -0.169D+00 0.122D+01
 Coeff-En:   0.000D+00 0.000D+00 0.000D+00 0.000D+00 0.000D+00 0.000D+00
 Coeff-En:   0.000D+00 0.100D+01
 Coeff:      0.736D-03-0.165D-02-0.529D-03 0.798D-02 0.420D-01-0.993D-01
 Coeff:     -0.169D+00 0.122D+01
 Gap=     0.336 Goal=   None    Shift=    0.000
 RMSDP=8.39D-06 MaxDP=1.72D-04 DE=-1.93D-05 OVMax= 3.61D-04

 Cycle   9  Pass 1  IDiag  1:
 Density matrix breaks symmetry, PCut= 1.00D-07
 Density has only Abelian symmetry.
 E= -74.8065083959240     Delta-E=       -0.000000237517 Rises=F Damp=F
 DIIS: error= 2.04D-05 at cycle   9 NSaved=   9.
 NSaved= 9 IEnMin= 9 EnMin= -74.8065083959240     IErMin= 9 ErrMin= 2.04D-05
 ErrMax= 2.04D-05  0.00D+00 EMaxC= 1.00D-01 BMatC= 4.26D-09 BMatP= 1.65D-07
 IDIUse=1 WtCom= 1.00D+00 WtEn= 0.00D+00
 Coeff-Com:  0.221D-04-0.967D-05-0.613D-04-0.306D-03-0.731D-02 0.159D-01
 Coeff-Com:  0.125D-01-0.219D+00 0.120D+01
 Coeff:      0.221D-04-0.967D-05-0.613D-04-0.306D-03-0.731D-02 0.159D-01
 Coeff:      0.125D-01-0.219D+00 0.120D+01
 Gap=     0.336 Goal=   None    Shift=    0.000
 RMSDP=1.65D-06 MaxDP=3.51D-05 DE=-2.38D-07 OVMax= 6.99D-05

 Cycle  10  Pass 1  IDiag  1:
 Density matrix breaks symmetry, PCut= 1.00D-07
 Density has only Abelian symmetry.
 E= -74.8065084024228     Delta-E=       -0.000000006499 Rises=F Damp=F
 DIIS: error= 3.26D-07 at cycle  10 NSaved=  10.
 NSaved=10 IEnMin=10 EnMin= -74.8065084024228     IErMin=10 ErrMin= 3.26D-07
 ErrMax= 3.26D-07  0.00D+00 EMaxC= 1.00D-01 BMatC= 1.24D-12 BMatP= 4.26D-09
 IDIUse=1 WtCom= 1.00D+00 WtEn= 0.00D+00
 Coeff-Com:  0.317D-05-0.962D-05-0.597D-05 0.805D-06 0.105D-02-0.218D-02
 Coeff-Com: -0.242D-02 0.345D-01-0.188D+00 0.116D+01
 Coeff:      0.317D-05-0.962D-05-0.597D-05 0.805D-06 0.105D-02-0.218D-02
 Coeff:     -0.242D-02 0.345D-01-0.188D+00 0.116D+01
 Gap=     0.336 Goal=   None    Shift=    0.000
 RMSDP=2.12D-08 MaxDP=4.42D-07 DE=-6.50D-09 OVMax= 7.97D-07

 Cycle  11  Pass 1  IDiag  1:
 Density matrix breaks symmetry, PCut= 1.00D-07
 Density has only Abelian symmetry.
 E= -74.8065084024246     Delta-E=       -0.000000000002 Rises=F Damp=F
 DIIS: error= 1.30D-07 at cycle  11 NSaved=  11.
 NSaved=11 IEnMin=11 EnMin= -74.8065084024246     IErMin=11 ErrMin= 1.30D-07
 ErrMax= 1.30D-07  0.00D+00 EMaxC= 1.00D-01 BMatC= 1.68D-13 BMatP= 1.24D-12
 IDIUse=1 WtCom= 1.00D+00 WtEn= 0.00D+00
 Coeff-Com:  0.588D-06-0.805D-06-0.651D-06 0.452D-06-0.891D-04 0.205D-03
 Coeff-Com:  0.131D-03-0.256D-02 0.141D-01-0.129D+00 0.112D+01
 Coeff:      0.588D-06-0.805D-06-0.651D-06 0.452D-06-0.891D-04 0.205D-03
 Coeff:      0.131D-03-0.256D-02 0.141D-01-0.129D+00 0.112D+01
 Gap=     0.336 Goal=   None    Shift=    0.000
 RMSDP=9.83D-09 MaxDP=2.08D-07 DE=-1.83D-12 OVMax= 4.14D-07

 Density matrix breaks symmetry, PCut= 1.00D-07
 Density has only Abelian symmetry.
 SCF Done:  E(ROHF) =  -74.8065084024     A.U. after   11 cycles
            NFock= 11  Conv=0.98D-08     -V/T= 2.0003
 <Sx>= 0.0000 <Sy>= 0.0000 <Sz>= 1.0000 <S**2>= 2.0000 S= 1.0000
 <L.S>= 0.000000000000E+00
 KE= 7.478387436547D+01 PE=-1.780190364989D+02 EE= 2.842865373104D+01
 Annihilation of the first spin contaminant:
 S**2 before annihilation     2.0000,   after     2.0000
 Leave Link  502 at Mon Oct  5 21:27:07 2020, MaxMem=   268435456 cpu:               4.4 elap:               0.6
 (Enter /applis/site/cecic/gaussian16/B.01/nehalem/g16/l801.exe)
 Windowed orbitals will be sorted by symmetry type.
 Density matrix breaks symmetry, PCut= 1.00D-07
 Density has only Abelian symmetry.
 GenMOA:  NOpAll= 48 NOp2=8 NOpUse=  8 JSym2X=1
 FoFJK:  IHMeth= 1 ICntrl=       0 DoSepK=F KAlg= 0 I1Cent=           0 FoldK=F
 IRaf=         0 NMat=       1 IRICut=       1 DoRegI=T DoRafI=F ISym2E= 1 IDoP0=0 IntGTp=1.
 FoFCou: FMM=F IPFlag=           0 FMFlag=      100000 FMFlg1=           0
         NFxFlg=           0 DoJE=F BraDBF=F KetDBF=F FulRan=T
         wScrn=  0.000000 ICntrl=         0 IOpCl=  1 I1Cent=           0 NGrid=           0
         NMat0=    1 NMatS0=      1 NMatT0=    0 NMatD0=    1 NMtDS0=    0 NMtDT0=    0
 Petite list used in FoFCou.
 <Sx>= 0.0000 <Sy>= 0.0000 <Sz>= 1.0000 <S**2>= 2.0000 S= 1.0000
 ExpMin= 5.97D-02 ExpMax= 1.53D+04 ExpMxC= 5.22D+02 IAcc=3 IRadAn=         5 AccDes= 0.00D+00
 HarFok:  IExCor=  205 AccDes= 0.00D+00 IRadAn=         5 IDoV=-2 UseB2=F ITyADJ=14
 ICtDFT= 12500011 ScaDFX=  1.000000  1.000000  1.000000  1.000000
 Largest valence mixing into a core orbital is  9.86D-05
 Largest core mixing into a valence orbital is  1.26D-05
 Largest valence mixing into a core orbital is  1.41D-04
 Largest core mixing into a valence orbital is  5.53D-05
 Range of M.O.s used for correlation:     2    46
 NBasis=    46 NAE=     5 NBE=     3 NFC=     1 NFV=     0
 NROrb=     45 NOA=     4 NOB=     2 NVA=    41 NVB=    43
 Singles contribution to E2=   -0.4360195560D-02
 Leave Link  801 at Mon Oct  5 21:27:07 2020, MaxMem=   268435456 cpu:               2.3 elap:               0.3
 (Enter /applis/site/cecic/gaussian16/B.01/nehalem/g16/l804.exe)
 Open-shell transformation, MDV=   268435456 ITran=4 ISComp=2.
 Unit  1 TFree=         71190 TCopy=        252068.
 Semi-Direct transformation.
 ModeAB=           2 MOrb=             4 LenV=     268163841
 LASXX=        21445 LTotXX=       21445 LenRXX=       21445
 LTotAB=       23654 MaxLAS=      277200 LenRXY=      277200
 NonZer=      303660 LenScr=      786432 LnRSAI=           0
 LnScr1=           0 LExtra=           0 Total=      1085077
 MaxDsk=          -1 SrtSym=           F ITran=            4
 DoSDTr:  NPSUse=  8
 JobTyp=1 Pass  1:  I=   1 to   4.
 (rs|ai) integrals will be sorted in core.
 Complete sort for first half transformation.
 First half transformation complete.
 Complete sort for second half transformation.
 Second half transformation complete.
 ModeAB=           2 MOrb=             2 LenV=     268163841
 LASXX=        11107 LTotXX=       11107 LenRXX=      138600
 LTotAB=       10107 MaxLAS=      138600 LenRXY=       10107
 NonZer=      151830 LenScr=      720896 LnRSAI=           0
 LnScr1=           0 LExtra=           0 Total=       869603
 MaxDsk=          -1 SrtSym=           F ITran=            4
 DoSDTr:  NPSUse=  8
 JobTyp=2 Pass  1:  I=   1 to   2.
 (rs|ai) integrals will be sorted in core.
 Complete sort for first half transformation.
 First half transformation complete.
 Complete sort for second half transformation.
 Second half transformation complete.
 Spin components of T(2) and E(2):
     alpha-alpha T2 =       0.6306065116D-02 E2=     -0.3196183758D-01
     alpha-beta  T2 =       0.2257154299D-01 E2=     -0.1120554300D+00
     beta-beta   T2 =       0.1009689780D-02 E2=     -0.4490845805D-02
 ANorm=    0.1015678757D+01
 E2 =    -0.1528683090D+00 EUMP2 =    -0.74959376711415D+02
 (S**2,0)=  0.20000D+01           (S**2,1)=  0.20000D+01
 E(PUHF)=      -0.74806508402D+02        E(PMP2)=      -0.74959376711D+02
 Leave Link  804 at Mon Oct  5 21:27:08 2020, MaxMem=   268435456 cpu:               3.1 elap:               0.5
 (Enter /applis/site/cecic/gaussian16/B.01/nehalem/g16/l913.exe)
 CIDS:  MDV=   268435456.
 Frozen-core window:  NFC=   1 NFV=   0.
 IFCWin=0 IBDFC=1 NFBD=     0     0 NFCmp=     0     0 NFFFC=     0     0
 Using original routines for 1st iteration.
 Using DD4UQ or CC4UQ for 2nd and later iterations.
 Keep R2 and R3 ints in memory in symmetry-blocked form, NReq=4492113.
 FoFCou: FMM=F IPFlag=           0 FMFlag=           0 FMFlg1=           0
         NFxFlg=           0 DoJE=F BraDBF=F KetDBF=F FulRan=T
         wScrn=  0.000000 ICntrl=       600 IOpCl=  0 I1Cent=           0 NGrid=           0
         NMat0=    1 NMatS0=   1081 NMatT0=    0 NMatD0=    1 NMtDS0=    0 NMtDT0=    0
 Petite list used in FoFCou.
 CIDS: In Core Option IDoMem=           1.
 CCSD(T)
 =======
 Iterations=  50 Convergence= 0.100D-06
 Produce multiple copies of IABC intergrals
 Iteration Nr.   1
 **********************
 DD1Dir will call FoFMem   1 times, MxPair=        24
 NAB=     8 NAA=     6 NBB=     1.
 DD1Dir will call FoFMem   1 times, MxPair=        24
 NAB=     8 NAA=     6 NBB=     1.
 MP4(R+Q)=  0.16927958D-01
 Maximum subspace dimension=  5
 A-vector RMS=  2.9341973D-04 Max=  8.3147551D-04 conv= 1.00D-05.
 RLE energy=       -0.1506447835
 E3=       -0.14695455D-01        EROMP3=      -0.74974072166D+02
 E4(SDQ)=  -0.10196639D-02        ROMP4(SDQ)=  -0.74975091830D+02
 VARIATIONAL ENERGIES WITH THE FIRST-ORDER WAVEFUNCTION:
 DE(Corr)= -0.15061013     E(Corr)=     -74.957118534    
 NORM(A)=   0.10150737D+01
 Iteration Nr.   2
 **********************
 DD1Dir will call FoFMem   1 times, MxPair=        24
 NAB=     8 NAA=     6 NBB=     1.
 A-vector RMS=  2.7470416D-03 Max=  1.1121328D-02 conv= 1.00D-05.
 RLE energy=       -0.1530784074
 DE(Corr)= -0.16505714     E(CORR)=     -74.971565541     Delta=-1.44D-02
 NORM(A)=   0.10156647D+01
 Iteration Nr.   3
 **********************
 DD1Dir will call FoFMem   1 times, MxPair=        24
 NAB=     8 NAA=     6 NBB=     1.
 A-vector RMS=  2.4194146D-03 Max=  9.9278491D-03 conv= 1.00D-05.
 RLE energy=       -0.1578063052
 DE(Corr)= -0.16550850     E(CORR)=     -74.972016905     Delta=-4.51D-04
 NORM(A)=   0.10170501D+01
 Iteration Nr.   4
 **********************
 DD1Dir will call FoFMem   1 times, MxPair=        24
 NAB=     8 NAA=     6 NBB=     1.
 A-vector RMS=  1.7582444D-03 Max=  7.4786884D-03 conv= 1.00D-05.
 RLE energy=       -0.1817587225
 DE(Corr)= -0.16648945     E(CORR)=     -74.972997848     Delta=-9.81D-04
 NORM(A)=   0.10266635D+01
 Iteration Nr.   5
 **********************
 DD1Dir will call FoFMem   1 times, MxPair=        24
 NAB=     8 NAA=     6 NBB=     1.
 A-vector RMS=  2.0876150D-03 Max=  8.6088668D-03 conv= 1.00D-05.
 RLE energy=       -0.1687257227
 DE(Corr)= -0.17144245     E(CORR)=     -74.977950855     Delta=-4.95D-03
 NORM(A)=   0.10209876D+01
 Iteration Nr.   6
 **********************
 DD1Dir will call FoFMem   1 times, MxPair=        24
 NAB=     8 NAA=     6 NBB=     1.
 A-vector RMS=  5.2071361D-05 Max=  2.6104675D-04 conv= 1.00D-05.
 RLE energy=       -0.1688411547
 DE(Corr)= -0.16880146     E(CORR)=     -74.975309860     Delta= 2.64D-03
 NORM(A)=   0.10210653D+01
 Iteration Nr.   7
 **********************
 DD1Dir will call FoFMem   1 times, MxPair=        24
 NAB=     8 NAA=     6 NBB=     1.
 A-vector RMS=  2.4345089D-05 Max=  1.3421024D-04 conv= 1.00D-05.
 RLE energy=       -0.1688423029
 DE(Corr)= -0.16883710     E(CORR)=     -74.975345503     Delta=-3.56D-05
 NORM(A)=   0.10210656D+01
 Iteration Nr.   8
 **********************
 DD1Dir will call FoFMem   1 times, MxPair=        24
 NAB=     8 NAA=     6 NBB=     1.
 A-vector RMS=  6.9978272D-06 Max=  3.4787392D-05 conv= 1.00D-05.
 RLE energy=       -0.1688353059
 DE(Corr)= -0.16883819     E(CORR)=     -74.975346587     Delta=-1.08D-06
 NORM(A)=   0.10210596D+01
 Iteration Nr.   9
 **********************
 DD1Dir will call FoFMem   1 times, MxPair=        24
 NAB=     8 NAA=     6 NBB=     1.
 A-vector RMS=  1.1786605D-06 Max=  4.6806759D-06 conv= 1.00D-05.
 RLE energy=       -0.1688359567
 DE(Corr)= -0.16883576     E(CORR)=     -74.975344167     Delta= 2.42D-06
 NORM(A)=   0.10210598D+01
 Iteration Nr.  10
 **********************
 DD1Dir will call FoFMem   1 times, MxPair=        24
 NAB=     8 NAA=     6 NBB=     1.
 A-vector RMS=  5.5635328D-07 Max=  2.6751723D-06 conv= 1.00D-05.
 RLE energy=       -0.1688360177
 DE(Corr)= -0.16883593     E(CORR)=     -74.975344330     Delta=-1.62D-07
 NORM(A)=   0.10210601D+01
 Iteration Nr.  11
 **********************
 DD1Dir will call FoFMem   1 times, MxPair=        24
 NAB=     8 NAA=     6 NBB=     1.
 A-vector RMS=  1.6561803D-07 Max=  8.5005906D-07 conv= 1.00D-05.
 RLE energy=       -0.1688360471
 DE(Corr)= -0.16883602     E(CORR)=     -74.975344423     Delta=-9.35D-08
 NORM(A)=   0.10210601D+01
 CI/CC converged in   11 iterations to DelEn=-9.35D-08 Conv= 1.00D-07 ErrA1= 1.66D-07 Conv= 1.00D-05
 Wavefunction amplitudes converged. E(Corr)=     -74.975344423    
 Largest amplitude= 3.87D-02
 Time for triples=     1205.64 seconds.
 T4(CCSD)= -0.35542204D-02
 T5(CCSD)=  0.41448318D-04
 CCSD(T)= -0.74978857195D+02
 Discarding MO integrals.
 Leave Link  913 at Mon Oct  5 21:29:55 2020, MaxMem=   268435456 cpu:            1214.5 elap:             167.1
 (Enter /applis/site/cecic/gaussian16/B.01/nehalem/g16/l601.exe)
 Copying SCF densities to generalized density rwf, IOpCl= 0 IROHF=1.
 SCF density gives NOpUse=  8 NOpAll= 48.
 Marking SCF density as not fully symmetric.

 **********************************************************************

            Population analysis using the SCF Density.

 **********************************************************************

 Orbital symmetries:
       Occupied  (A1G) (A1G) (?A) (?A) (?A)
       Virtual   (?A) (?A) (?B) (?A) (?B) (T2G) (T2G) (T2G) (?B)
                 (?A) (?A) (?A) (?B) (?A) (?A) (?A) (A2U) (?A)
                 (?A) (?A) (EG) (T2G) (T2G) (T2G) (EG) (T1U) (T1U)
                 (T1U) (?C) (?C) (?C) (A2U) (?C) (?C) (?C) (T2G)
                 (T2G) (T2G) (T2G) (T2G) (T2G)
 Unable to determine electronic state:  an orbital has unidentified symmetry.
 Alpha  occ. eigenvalues --  -20.70912  -1.40580  -0.70280  -0.70280  -0.60669
 Alpha virt. eigenvalues --    0.15340   0.15340   0.15519   0.16294   0.62221
 Alpha virt. eigenvalues --    0.62221   0.63816   0.63816   0.64284   0.86855
 Alpha virt. eigenvalues --    0.86855   0.91290   1.26381   1.99503   1.99503
 Alpha virt. eigenvalues --    2.01728   2.01728   2.03049   2.03049   2.03483
 Alpha virt. eigenvalues --    2.04261   2.04261   2.08914   2.08914   2.10286
 Alpha virt. eigenvalues --    4.06344   4.06344   4.13862   6.33514   6.33514
 Alpha virt. eigenvalues --    6.38091   6.38091   6.40814   6.40814   6.41710
 Alpha virt. eigenvalues --    6.83478   6.83478   6.90135   6.90135   6.92276
 Alpha virt. eigenvalues --    8.26711
          Condensed to atoms (all electrons):
               1
     1  O    8.000000
          Atomic-Atomic Spin Densities.
               1
     1  O    2.000000
 Mulliken charges and spin densities:
               1          2
     1  O   -0.000000   2.000000
 Sum of Mulliken charges =  -0.00000   2.00000
 Mulliken charges and spin densities with hydrogens summed into heavy atoms:
               1          2
     1  O   -0.000000   2.000000
 Electronic spatial extent (au):  <R**2>=             11.2349
 Charge=             -0.0000 electrons
 Dipole moment (field-independent basis, Debye):
    X=              0.0000    Y=              0.0000    Z=              0.0000  Tot=              0.0000
 Quadrupole moment (field-independent basis, Debye-Ang):
   XX=             -4.6226   YY=             -4.6226   ZZ=             -5.8661
   XY=             -0.0000   XZ=             -0.0000   YZ=              0.0000
 Traceless Quadrupole moment (field-independent basis, Debye-Ang):
   XX=              0.4145   YY=              0.4145   ZZ=             -0.8290
   XY=             -0.0000   XZ=             -0.0000   YZ=              0.0000
 Octapole moment (field-independent basis, Debye-Ang**2):
  XXX=              0.0000  YYY=              0.0000  ZZZ=              0.0000  XYY=              0.0000
  XXY=              0.0000  XXZ=              0.0000  XZZ=              0.0000  YZZ=              0.0000
  YYZ=              0.0000  XYZ=              0.0000
 Hexadecapole moment (field-independent basis, Debye-Ang**3):
 XXXX=             -3.0915 YYYY=             -3.0915 ZZZZ=             -4.9283 XXXY=             -0.0000
 XXXZ=             -0.0000 YYYX=             -0.0000 YYYZ=              0.0000 ZZZX=             -0.0000
 ZZZY=              0.0000 XXYY=             -1.0305 XXZZ=             -1.3372 YYZZ=             -1.3372
 XXYZ=              0.0000 YYXZ=             -0.0000 ZZXY=             -0.0000
 N-N= 0.000000000000D+00 E-N=-1.780190358414D+02  KE= 7.478387436547D+01
 Symmetry AG   KE= 6.463781083457D+01
 Symmetry B1G  KE= 1.343795831866D-54
 Symmetry B2G  KE= 2.914867484539D-37
 Symmetry B3G  KE= 2.914867484539D-37
 Symmetry AU   KE= 3.391167144169D-36
 Symmetry B1U  KE= 4.895159753062D+00
 Symmetry B2U  KE= 2.625451888921D+00
 Symmetry B3U  KE= 2.625451888921D+00
 Symmetry AG   SP= 0.000000000000D+00
 Symmetry B1G  SP= 0.000000000000D+00
 Symmetry B2G  SP= 0.000000000000D+00
 Symmetry B3G  SP= 0.000000000000D+00
 Symmetry AU   SP= 7.945158073451D-37
 Symmetry B1U  SP= 5.220076578875D-50
 Symmetry B2U  SP= 1.000000000000D+00
 Symmetry B3U  SP= 1.000000000000D+00
                          Isotropic Fermi Contact Couplings
        Atom                 a.u.       MegaHertz       Gauss      10(-4) cm-1
     1  O(17)              0.00000      -0.00000      -0.00000      -0.00000
 --------------------------------------------------------
       Center         ----  Spin Dipole Couplings  ----
                      3XX-RR        3YY-RR        3ZZ-RR
 --------------------------------------------------------
     1   Atom        2.026662      2.026662     -4.053324
 --------------------------------------------------------
                        XY            XZ            YZ
 --------------------------------------------------------
     1   Atom        0.000000      0.000000      0.000000
 --------------------------------------------------------


 ---------------------------------------------------------------------------------
              Anisotropic Spin Dipole Couplings in Principal Axis System
 ---------------------------------------------------------------------------------

       Atom             a.u.   MegaHertz   Gauss  10(-4) cm-1        Axes

              Baa    -4.0533   293.296   104.655    97.833  0.0000  0.0000  1.0000
     1 O(17)  Bbb     2.0267  -146.648   -52.328   -48.916  1.0000  0.0000  0.0000
              Bcc     2.0267  -146.648   -52.328   -48.916 -0.0000  1.0000  0.0000
 

 ---------------------------------------------------------------------------------

 No NMR shielding tensors so no spin-rotation constants.
 Leave Link  601 at Mon Oct  5 21:29:55 2020, MaxMem=   268435456 cpu:               2.2 elap:               0.3
 (Enter /applis/site/cecic/gaussian16/B.01/nehalem/g16/l9999.exe)
 1\1\GINC-DAHU72\SP\ROCCSD(T)-FC\Aug-CC-pVTZ\O1(3)\TINACCIL\05-Oct-2020
 \0\\#P ROCCSD(T)/aug-cc-pvtz\\Title\\0,3\O\\Version=ES64L-G16RevB.01\H
 F=-74.8065084\MP2=-74.9593767\MP3=-74.9740722\PUHF=-74.8065084\PMP2-0=
 -74.9593767\MP4SDQ=-74.9750918\CCSD=-74.9753444\CCSD(T)=-74.9788572\RM
 SD=9.831e-09\PG=OH [O(O1)]\\@


 THAT'S WHAT MAKES US A GREAT COUNTRY.
 THE LITTLE THINGS ARE SERIOUS AND THE BIG ONES ARE NOT.
           WILL ROGERS
 Job cpu time:       0 days  0 hours 20 minutes 35.6 seconds.
 Elapsed time:       0 days  0 hours  2 minutes 50.4 seconds.
 File lengths (MBytes):  RWF=     21 Int=      0 D2E=      0 Chk=      2 Scr=      1
 Normal termination of Gaussian 16 at Mon Oct  5 21:29:55 2020.
