5
 energy: -10.916677123866 gnorm: 0.149175784848 xtb: 6.2.2 (9d81278992624c895f80dd42a50cac0aa55982e2)
C         1.45859600000000   -0.02140400000000   -0.06089100000000
C         0.16233500000000    0.73366800000000    0.08226500000000
C        -0.90242000000000    0.11205600000000   -0.69125000000000
N        -0.85096500000000   -0.08932000000000    0.78669800000000
C         0.13245400000000   -0.73500100000000   -0.11682200000000
5
 energy: -10.939220707971 gnorm: 0.075038409245 xtb: 6.2.2 (9d81278992624c895f80dd42a50cac0aa55982e2)
C         1.39620065819136   -0.02716316813885   -0.00902649778726
C         0.15189151956960    0.78073621823945    0.06090589767717
C        -0.89868587637464    0.11234389048521   -0.69403644501048
N        -0.76965479444855   -0.09168855846826    0.79206058313886
C         0.12024849306224   -0.77422938211755   -0.14990353801829
5
 energy: -10.946731554589 gnorm: 0.026673606420 xtb: 6.2.2 (9d81278992624c895f80dd42a50cac0aa55982e2)
C         1.33057852723475   -0.02527884391001   -0.01304968022988
C         0.14510334660653    0.82311921213898    0.07779370591945
C        -0.86153941630811    0.11296857853769   -0.70443661988334
N        -0.72581166558086   -0.09154381346605    0.78461589814135
C         0.11166920804770   -0.81926613330061   -0.14492330394758
5
 energy: -10.947299995660 gnorm: 0.014417002445 xtb: 6.2.2 (9d81278992624c895f80dd42a50cac0aa55982e2)
C         1.33068029858540   -0.02356986763226   -0.02563330155766
C         0.14424115113755    0.83133058150946    0.08730176590164
C        -0.85189962038080    0.11274041591963   -0.70430833590471
N        -0.73344097251866   -0.09082984856491    0.78060971529017
C         0.11041914317651   -0.82967228123191   -0.13796984372944
5
 energy: -10.947493282545 gnorm: 0.003956996624 xtb: 6.2.2 (9d81278992624c895f80dd42a50cac0aa55982e2)
C         1.33371332249659   -0.02317489928477   -0.02890592279354
C         0.14325793928372    0.83890679203454    0.08954797256283
C        -0.84873072112202    0.11214915702664   -0.70059109991976
N        -0.73734504301686   -0.09034353584704    0.77781752034120
C         0.10910450235857   -0.83753851392936   -0.13786847019072
5
 energy: -10.947510515177 gnorm: 0.002200822803 xtb: 6.2.2 (9d81278992624c895f80dd42a50cac0aa55982e2)
C         1.33441753962954   -0.02335163938863   -0.02762344532207
C         0.14325954699300    0.84034649476112    0.08821430805870
C        -0.84896520073056    0.11182339229483   -0.69830008838809
N        -0.73775216917349   -0.09023944438153    0.77729224583672
C         0.10904028328150   -0.83857980328578   -0.13958302018526
5
 energy: -10.947515887765 gnorm: 0.001135293546 xtb: 6.2.2 (9d81278992624c895f80dd42a50cac0aa55982e2)
C         1.33433684961394   -0.02345592449437   -0.02671839701622
C         0.14359444984154    0.84072571161379    0.08713817805567
C        -0.84907200179678    0.11156471014658   -0.69662639053721
N        -0.73820064549085   -0.09015149011301    0.77700518244798
C         0.10934134783215   -0.83868400715299   -0.14079857295021
5
 energy: -10.947517128055 gnorm: 0.000599409420 xtb: 6.2.2 (9d81278992624c895f80dd42a50cac0aa55982e2)
C         1.33385156258681   -0.02345278224149   -0.02642592981543
C         0.14411448173804    0.84060188470462    0.08668999083330
C        -0.84909830350359    0.11139157642629   -0.69578684971424
N        -0.73869277819878   -0.09004754356281    0.77686159776285
C         0.10982503737752   -0.83849413532661   -0.14133880906647
