$hessian                                                                        
        0.4157441520  -0.0065851864  -0.0053215186  -0.1246914832   0.0990832653
        0.0073555211  -0.0741975098   0.0024333198  -0.0006717271  -0.0869474842
       -0.0010806452   0.0161935675  -0.1299076748  -0.0938507534  -0.0175558429
       -0.0065851864   0.0663982273   0.0015344674   0.0385287523  -0.0402841443
       -0.0370221963   0.0066183239   0.0486816976   0.0058605245  -0.0064975568
       -0.0324568253  -0.0040125037  -0.0320643330  -0.0423389553   0.0336397081
       -0.0053215186   0.0015344674   0.0554263822  -0.0062876053   0.0062148981
       -0.0318471755  -0.0285479701   0.0064441643   0.0061263829   0.0563216390
       -0.0049851754  -0.0054462081  -0.0161645450  -0.0092083544  -0.0242593815
       -0.1246914832   0.0385287523  -0.0062876053   0.2798658523   0.0941487059
        0.0057065342  -0.1280976754  -0.0419131340  -0.1081804579  -0.0831879456
       -0.1105135060   0.0614103304   0.0561112519   0.0197491817   0.0473511986
        0.0990832653  -0.0402841443   0.0062148981   0.0941487059   0.3587392810
        0.0686887972  -0.1039115272  -0.0957777198  -0.1097305466  -0.0485761614
       -0.0576787879   0.0816980791  -0.0407442825  -0.1649986290  -0.0468712279
        0.0073555211  -0.0370221963  -0.0318471755   0.0057065342   0.0686887972
        0.0780101058  -0.0956271649   0.0180859906  -0.0651567320   0.0436003994
       -0.0208338970  -0.0813504189   0.0389647103  -0.0289186945   0.1003442206
       -0.0741975098   0.0066183239  -0.0285479701  -0.1280976754  -0.1039115272
       -0.0956271649   0.3260190708  -0.0310869399   0.1861473265  -0.0019507293
        0.0019877428   0.0041987302  -0.1217731563   0.1263924004  -0.0661709216
        0.0024333198   0.0486816976   0.0064441643  -0.0419131340  -0.0957777198
        0.0180859906  -0.0310869399   0.0744881351  -0.0389605508   0.0003608424
        0.0972606311   0.0442876617   0.0702059117  -0.1246527441  -0.0298572658
       -0.0006717271   0.0058605245   0.0061263829  -0.1081804579  -0.1097305466
       -0.0651567320   0.1861473265  -0.0389605508   0.3276341965   0.0115666198
        0.0441788779  -0.2257811077  -0.0888617614   0.0986516950  -0.0428227397
       -0.0869474842  -0.0064975568   0.0563216390  -0.0831879456  -0.0485761614
        0.0436003994  -0.0019507293   0.0003608424   0.0115666198   0.2491877685
        0.0187719621  -0.1668605793  -0.0771016095   0.0359409137   0.0553719211
       -0.0010806452  -0.0324568253  -0.0049851754  -0.1105135060  -0.0576787879
       -0.0208338970   0.0019877428   0.0972606311   0.0441788779   0.0187719621
        0.0418778787  -0.0471306662   0.0908344463  -0.0490028967   0.0287708607
        0.0161935675  -0.0040125037  -0.0054462081   0.0614103304   0.0816980791
       -0.0813504189   0.0041987302   0.0442876617  -0.2257811077  -0.1668605793
       -0.0471306662   0.4086281141   0.0850579513  -0.0748425709  -0.0960503794
       -0.1299076748  -0.0320643330  -0.0161645450   0.0561112519  -0.0407442825
        0.0389647103  -0.1217731563   0.0702059117  -0.0888617614  -0.0771016095
        0.0908344463   0.0850579513   0.2726711887  -0.0882317424  -0.0189963552
       -0.0938507534  -0.0423389553  -0.0092083544   0.0197491817  -0.1649986290
       -0.0289186945   0.1263924004  -0.1246527441   0.0986516950   0.0359409137
       -0.0490028967  -0.0748425709  -0.0882317424   0.3809932251   0.0143179249
       -0.0175558429   0.0336397081  -0.0242593815   0.0473511986  -0.0468712279
        0.1003442206  -0.0661709216  -0.0298572658  -0.0428227397   0.0553719211
        0.0287708607  -0.0960503794  -0.0189963552   0.0143179249   0.0627882800
