[Molden Format]
[Title]
[Atoms] AU
C      1     6 -0.32157085579627E+01 -0.11862541023514E-01  0.12719428337075E-01
C      2     6 -0.98661495563139E+00 -0.35488963479220E+00 -0.13923937450526E+01
C      3     6  0.13722340635721E+01  0.84834856818133E-02 -0.61940487571797E-02
C      4     6 -0.97820029152816E+00  0.34900511737200E+00  0.13998942927617E+01
C      5     6  0.38082916312695E+01  0.92635727487072E-02 -0.14027817021638E-01
[GTO]
           1 0
 s           4   1.0000000000000000     
   51.049363095579913      -0.16312063210127389     
   8.7911227406887544      -0.19911024581000730     
  0.70640422258929825       0.31882047753655751     
  0.26922813413411617       0.12706504184240380     
 p           4   1.0000000000000000     
   5.8263656140800002       0.73716451545209605     
   1.5106896018720002       0.68216371614850257     
  0.53256483288000001       0.35783053929253711     
  0.21202323690600003        5.3983030275847881E-002

           2 0
 s           4   1.0000000000000000     
   51.049363095579913      -0.16312063210127389     
   8.7911227406887544      -0.19911024581000730     
  0.70640422258929825       0.31882047753655751     
  0.26922813413411617       0.12706504184240380     
 p           4   1.0000000000000000     
   5.8263656140800002       0.73716451545209605     
   1.5106896018720002       0.68216371614850257     
  0.53256483288000001       0.35783053929253711     
  0.21202323690600003        5.3983030275847881E-002

           3 0
 s           4   1.0000000000000000     
   51.049363095579913      -0.16312063210127389     
   8.7911227406887544      -0.19911024581000730     
  0.70640422258929825       0.31882047753655751     
  0.26922813413411617       0.12706504184240380     
 p           4   1.0000000000000000     
   5.8263656140800002       0.73716451545209605     
   1.5106896018720002       0.68216371614850257     
  0.53256483288000001       0.35783053929253711     
  0.21202323690600003        5.3983030275847881E-002

           4 0
 s           4   1.0000000000000000     
   51.049363095579913      -0.16312063210127389     
   8.7911227406887544      -0.19911024581000730     
  0.70640422258929825       0.31882047753655751     
  0.26922813413411617       0.12706504184240380     
 p           4   1.0000000000000000     
   5.8263656140800002       0.73716451545209605     
   1.5106896018720002       0.68216371614850257     
  0.53256483288000001       0.35783053929253711     
  0.21202323690600003        5.3983030275847881E-002

           5 0
 s           4   1.0000000000000000     
   51.049363095579913      -0.16312063210127389     
   8.7911227406887544      -0.19911024581000730     
  0.70640422258929825       0.31882047753655751     
  0.26922813413411617       0.12706504184240380     
 p           4   1.0000000000000000     
   5.8263656140800002       0.73716451545209605     
   1.5106896018720002       0.68216371614850257     
  0.53256483288000001       0.35783053929253711     
  0.21202323690600003        5.3983030275847881E-002

[MO]
Sym=     1a
Ene=  -0.74696694248838114     
Spin= Alpha
Occup=     2.00000000
           1 -0.24968053315312078     
           2 -0.12486032032285935     
           3  -5.0797825888009398E-004
           4   5.0462990385781751E-004
           5 -0.35751121841115580     
           6  -8.4303810764152550E-003
           7  -4.0029110366497381E-002
           8 -0.15843989926389196     
           9 -0.26723188731650960     
          10  0.13584209189517063     
          11   7.6281805566278836E-004
          12  -5.9704876654184961E-004
          13 -0.35750717154688871     
          14  -7.4770298643960283E-003
          15   3.9873231631201517E-002
          16  0.15852562807526235     
          17  -5.2399622975664042E-002
          18   4.1730886168347699E-002
          19   8.6886975181798426E-005
          20  -1.4992449835562886E-004
Sym=     2a
Ene=  -0.69484030795932017     
Spin= Alpha
Occup=     2.00000000
           1 -0.22616571820709902     
           2  -5.4228460115312710E-002
           3  -2.4304665710520449E-004
           4   2.2412266038642176E-004
           5  -5.4716585117566711E-002
           6  0.17246673251370939     
           7  -4.7116234287850655E-003
           8  -2.1754509962620922E-002
           9  0.44154697449665525     
          10  0.18307270672871431     
          11  -6.8265898845651729E-005
          12  -5.6249038852224087E-004
          13  -5.4729011089294205E-002
          14  0.17258293315849030     
          15   5.9165165247020528E-003
          16   2.0406600529150561E-002
          17  0.47167925819929607     
          18 -0.15888008412527571     
          19  -9.4762199878084121E-005
          20   5.1836595341783287E-004
Sym=     3a
Ene=  -0.64303553050119766     
Spin= Alpha
Occup=     2.00000000
           1 -0.41692973870397232     
           2  -3.4127273362235575E-002
           3   1.7821606956117125E-006
           4   1.1576133801385483E-004
           5   3.8280715391546441E-002
           6  0.29573881056584739     
           7   4.2569479491287648E-003
           8   9.4230577132837622E-003
           9   9.9321322571147008E-002
          10 -0.34435906102204461     
          11  -6.6689737291468574E-004
          12   1.2537323241044694E-003
          13   3.8355859981668981E-002
          14  0.29568960792408372     
          15  -1.1347845100064960E-003
          16  -1.1965827517569663E-002
          17 -0.41950245159643140     
          18   3.1829004980530540E-002
          19  -1.3801706088294218E-004
          20  -6.4574447398539910E-005
Sym=     4a
Ene=  -0.60955121665878431     
Spin= Alpha
Occup=     2.00000000
           1   3.7882566571386209E-005
           2   7.1252701897321343E-004
           3   5.9753004412779427E-002
           4  0.23703504383546389     
           5 -0.49208142494779694     
           6  -3.1451865213165932E-002
           7   4.6351296650260464E-002
           8  0.18489114168848306     
           9   2.2062082150767003E-005
          10   1.0812719063297072E-003
          11   8.6841663718271234E-002
          12  0.34449291580134750     
          13  0.49206876278637751     
          14   3.2519953389772767E-002
          15   4.6788908320646562E-002
          16  0.18458931129447256     
          17   4.3486653702905727E-005
          18   3.3532245967517882E-004
          19   2.7273123803375057E-002
          20  0.10818992946645097     
Sym=     5a
Ene=  -0.56607116626034570     
Spin= Alpha
Occup=     2.00000000
           1  -6.7089042699075595E-004
           2   1.5497208256552504E-003
           3 -0.27451040181303460     
           4   6.9195291615761739E-002
           5   2.5585770716222235E-004
           6   2.4956310905062413E-003
           7 -0.42975079331921928     
           8  0.10840982655410514     
           9  -1.2045777732404110E-003
          10   1.2554442431381013E-003
          11 -0.40826002475880857     
          12  0.10291262067305554     
          13   2.5574939441648005E-004
          14   2.4952245625223584E-003
          15 -0.42978706233345965     
          16  0.10825192468356118     
          17  -2.2633212229528841E-004
          18   4.6867075035468927E-004
          19 -0.17143465670139144     
          20   4.3214752237348372E-002
Sym=     6a
Ene=  -0.54370067630187147     
Spin= Alpha
Occup=     2.00000000
           1  -1.6058061658985830E-005
           2   1.2111229638295780E-003
           3  0.10093058349164716     
           4  0.40038263022298021     
           5 -0.11068058785272632     
           6  0.36702183538032512     
           7   1.4223773389129817E-002
           8   4.8601673256246793E-002
           9  -3.8800015636451235E-005
          10  -1.2837692252957067E-003
          11 -0.10491356032031564     
          12 -0.41618219481029589     
          13  0.11068287543088821     
          14 -0.36671177264424654     
          15   1.1035252347721057E-002
          16   5.1598644981642620E-002
          17   6.2363168107028075E-006
          18  -7.1691880662919007E-004
          19  -5.8604603505965552E-002
          20 -0.23247887033370684     
Sym=     7a
Ene=  -0.48410664399129127     
Spin= Alpha
Occup=     2.00000000
           1  0.39542327242462921     
           2 -0.29563590633445419     
           3  -3.1852047259977694E-003
           4   1.7137533539230278E-003
           5 -0.15120331763973710     
           6  -1.1467330006792410E-002
           7  -4.4492469295728648E-005
           8   6.4022511760670250E-003
           9  0.28344989978700835     
          10  0.10304046460805677     
          11   2.3727298557868958E-003
          12  -9.2164328522791050E-004
          13 -0.15121902187261227     
          14  -1.1541336944689595E-002
          15  -3.0604216240953152E-003
          16  -5.5610865566038887E-003
          17 -0.56450021383664728     
          18 -0.55038170335856851     
          19   2.0032426787307375E-003
          20   1.2192351870072291E-003
Sym=     8a
Ene=  -0.46320741376503310     
Spin= Alpha
Occup=     2.00000000
           1   4.3779401132861802E-003
           2  -6.0932491914997035E-003
           3  0.38594432601130668     
           4  -9.7272607407473927E-002
           5  -7.6710563202196207E-003
           6  -1.9712460335255619E-004
           7  0.22544367390103573     
           8  -4.7593393061862832E-002
           9   1.8902830450581362E-004
          10   4.5422131323776026E-004
          11 -0.47512526339620431     
          12  0.11977070924057998     
          13  -7.6711739722878473E-003
          14  -2.4924013928833799E-004
          15  0.22105157515944768     
          16  -6.4960171022109797E-002
          17  -1.3991290751481778E-004
          18   8.4308895906291456E-004
          19 -0.58410534677571135     
          20  0.14724209190955290     
Sym=     9a
Ene=  -0.46229705012885641     
Spin= Alpha
Occup=     2.00000000
           1  -3.5955358456515249E-002
           2   3.4503436985423026E-002
           3   6.5813063337866939E-003
           4  -1.7548309412398562E-003
           5  0.40948143388666114     
           6  -2.9859189636000250E-002
           7 -0.13480863643957483     
           8 -0.54976169805052566     
           9   1.0216303121694949E-002
          10   5.1281673829229740E-002
          11  -7.7231730238451254E-003
          12   1.7920425887213598E-003
          13  0.40948402318243993     
          14  -2.6566664036239095E-002
          15  0.14195292110573557     
          16  0.54812806229675293     
          17  -8.4782008916818447E-002
          18 -0.11666932478245219     
          19  -9.7177777102065693E-003
          20   2.8035180107223029E-003
Sym=    10a
Ene=  -0.43899956193246509     
Spin= Alpha
Occup=     1.99999995
           1 -0.53129296093231904     
           2  0.60480208335553409     
           3   4.2585377420732368E-003
           4  -2.8687451857239686E-003
           5  -4.5243566831848978E-003
           6 -0.18447978003369883     
           7   2.4255801593724792E-002
           8   9.6736083928169264E-002
           9  -3.3630559796655746E-002
          10  0.23552200278516017     
          11  -9.9981092658388412E-004
          12  -4.5131877911329296E-004
          13  -4.5566479221930134E-003
          14 -0.18510846180446500     
          15  -2.4241865530813953E-002
          16  -9.5648407677059441E-002
          17 -0.25797137285331867     
          18 -0.37416641227794595     
          19  -1.9524783443235630E-003
          20   1.7529949963437776E-003
Sym=    11a
Ene=  -0.40561189980472934     
Spin= Alpha
Occup=     0.00000005
           1   4.2378663052839880E-005
           2   7.9536177584543365E-004
           3   7.1676610361576423E-002
           4  0.28433679041849264     
           5  0.20444869022292064     
           6  0.23512331216498286     
           7  -4.2980276259422731E-002
           8 -0.17543564792138996     
           9   1.4806648764302778E-006
          10   3.1370342473390091E-004
          11   2.7476055205905951E-002
          12  0.10899466799721702     
          13 -0.20441755984844692     
          14 -0.23611331475908739     
          15  -4.4980198124534992E-002
          16 -0.17349667766652360     
          17   2.1913759635680210E-005
          18   2.5281133551178850E-003
          19  0.19852652044183564     
          20  0.78753508823174900     
Sym=    12a
Ene=  -0.35264526537693125     
Spin= Alpha
Occup=     0.00000000
           1   3.1167105218445589E-008
           2  -1.4362699793792628E-006
           3  -8.0019616037986594E-005
           4  -4.1727089529686396E-004
           5  -3.0091800422485653E-004
           6  -3.9560646293523823E-003
           7  0.74245843680857193     
           8 -0.18677467618808793     
           9  -7.9426544761512875E-008
          10  -1.3429371897830707E-006
          11  -1.3884411289389299E-004
          12  -4.6392856551857788E-004
          13   3.0099078040906057E-004
          14   3.9583845652119108E-003
          15 -0.74229692679004222     
          16  0.18748646616286144     
          17  -2.7898457721967106E-008
          18   1.5165715597270959E-006
          19   1.6573488004522035E-004
          20   4.8768922861766253E-004
Sym=    13a
Ene=  -0.31823199846006611     
Spin= Alpha
Occup=     0.00000000
           1   2.5086982873722920E-004
           2  -4.4654552807910537E-003
           3  0.74144454811240701     
           4 -0.18689382551470557     
           5   3.8527989871562198E-004
           6   1.8292036602469790E-003
           7 -0.23758053433181547     
           8   6.0127511599350550E-002
           9  -1.2105223205424796E-003
          10   1.4254240669274931E-003
          11 -0.32828823950836639     
          12   8.2752315162438930E-002
          13   3.8528867343685252E-004
          14   1.8274664669835478E-003
          15 -0.23762098046065799     
          16   5.9652801254491968E-002
          17  -2.8199356582056902E-004
          18  -9.0560590753215714E-004
          19  0.57928159414654479     
          20 -0.14602568815423639     
Sym=    14a
Ene=  -0.24513972921031305     
Spin= Alpha
Occup=     0.00000000
           1   1.0350272250244140E-006
           2   1.5981454955350061E-003
           3  0.13159388824289986     
           4  0.52201901061326572     
           5  0.15137791352007487     
           6  -8.0080758611649483E-002
           7 -0.11861164808765293     
           8 -0.47215931964636237     
           9   4.8381207272877040E-005
          10   1.6492773066124605E-003
          11  0.13579283128147610     
          12  0.53867634223497340     
          13 -0.15140973352647896     
          14   7.7209772748328562E-002
          15 -0.11950069874289529     
          16 -0.47240839383644595     
          17   3.2459358548727010E-006
          18  -1.4793508056017406E-003
          19 -0.12105373061676901     
          20 -0.48020775849020642     
Sym=    15a
Ene=  -0.19227588206650792     
Spin= Alpha
Occup=     0.00000000
           1  -6.5603426966800513E-005
           2   1.6374324098343699E-003
           3 -0.47741278292895634     
           4  0.12034427334778210     
           5   4.7835335359013617E-004
           6  -1.5012558147790565E-003
           7  0.41075354930193059     
           8 -0.10320306848161491     
           9  -2.9644246762585325E-003
          10   2.8768990235826472E-003
          11 -0.74002503139885700     
          12  0.18654114967936367     
          13   4.7826839767373732E-004
          14  -1.5029090907057304E-003
          15  0.41061855544194059     
          16 -0.10384459478507149     
          17   1.1672847490504354E-004
          18  -2.3480037775985107E-003
          19  0.53808450944864294     
          20 -0.13563637301426015     
Sym=    16a
Ene=    9.6755526246868770E-002
Spin= Alpha
Occup=     0.00000000
           1  0.18213011015344141     
           2  0.43123192467413340     
           3   1.4816911992636031E-003
           4  -1.8187309335243580E-003
           5 -0.44621734731687590     
           6 -0.28066690862598143     
           7  -6.8149150462927174E-002
           8 -0.26626971030890728     
           9   1.0420906944476753     
          10 -0.32383835149623946     
          11  -4.8501177968107156E-003
          12   2.3927255360183617E-003
          13 -0.44641929264783792     
          14 -0.27947808056976919     
          15   6.6677856804977051E-002
          16  0.26858605134900443     
          17 -0.22435985893798380     
          18  0.50114260557874535     
          19   2.0203942646180406E-003
          20  -2.1423239583459042E-003
Sym=    17a
Ene=   0.13671450457406686     
Spin= Alpha
Occup=     0.00000000
           1   4.9693494493539655E-005
           2   1.5607735988394807E-003
           3  0.11963753714967923     
           4  0.47458879307009494     
           5 -0.26467360194729511     
           6 -0.69509466416086552     
           7  -7.3458059971556786E-002
           8 -0.27601574607240315     
           9   2.7824869821973044E-004
          10  -2.5910920123637772E-003
          11 -0.19879471079226335     
          12 -0.78859391718704086     
          13  0.26436432641889901     
          14  0.69320303716560427     
          15  -6.7106579611117184E-002
          16 -0.28158711069709613     
          17  -2.8147997120343989E-005
          18   9.7658377813986531E-004
          19   7.1811801784952958E-002
          20  0.28486841390908019     
Sym=    18a
Ene=   0.17969673351547355     
Spin= Alpha
Occup=     0.00000000
           1  -1.1466246353357483E-005
           2  -1.9293833785990135E-003
           3 -0.16120406409877899     
           4 -0.63948222862092807     
           5 -0.67439644384540609     
           6  0.31127059507516103     
           7 -0.16504392150234756     
           8 -0.66079666511710977     
           9   3.5280619263224651E-005
          10  -2.9682879087596103E-004
          11  -2.1439375621256071E-002
          12  -8.5047106965397912E-002
          13  0.67436862625368921     
          14 -0.31530579912984952     
          15 -0.16747638604527121     
          16 -0.65828053908293660     
          17   3.7426723439372084E-006
          18   1.4873356842688124E-004
          19   1.1880971804445627E-002
          20   4.7130444698000935E-002
Sym=    19a
Ene=   0.38729411664145763     
Spin= Alpha
Occup=     0.00000000
           1 -0.86189163038527072     
           2 -0.88361840857349194     
           3  -3.5098869417972928E-003
           4   3.5610046023457497E-003
           5  0.29630640898391908     
           6 -0.69347673646579577     
           7   4.2288225037165124E-002
           8  0.18173613106904496     
           9  0.40112362793201239     
          10 -0.16305223837933550     
          11  -1.3736067976943304E-003
          12   8.4216774936089257E-004
          13  0.29625878586696319     
          14 -0.69454999219123159     
          15  -4.7916287125124357E-002
          16 -0.17609725888259023     
          17  -2.8397088582047043E-002
          18   8.1225483349119429E-002
          19   3.3557668913649621E-004
          20  -3.4351019602303352E-004
Sym=    20a
Ene=   0.75913546827485123     
Spin= Alpha
Occup=     0.00000000
           1  -1.7961921219263478E-002
           2  -9.7051066239488282E-002
           3  -7.0056059104013938E-004
           4   4.9064267107676014E-004
           5  0.30099956349755874     
           6  0.23182536832271353     
           7   4.5711377899797616E-002
           8  0.17298308354949327     
           9  0.36544456159186406     
          10   1.3244596059136571     
          11   2.2856313992834104E-003
          12  -4.7385891943796683E-003
          13  0.30111428400017759     
          14  0.23090914617357344     
          15  -4.2098686190071483E-002
          16 -0.17535504662885160     
          17 -0.81905548117615434     
          18  0.90102643539076710     
          19  -1.8093535285908252E-004
          20  -2.7752673949164785E-003
