5
 energy: -10.114603460193 gnorm: 0.220719976200 xtb: 6.2.2 (9d81278992624c895f80dd42a50cac0aa55982e2)
C        -1.36653800000000    0.64998400000000   -0.15976600000000
C        -0.52619800000000   -0.51465200000000   -0.64789700000000
C         0.76507100000000   -0.59351000000000    0.14735100000000
C        -0.52176300000000   -0.14512700000000    0.81746400000000
C         1.64942900000000    0.60330500000000   -0.15715300000000
5
 energy: -10.175950882741 gnorm: 0.144197308571 xtb: 6.2.2 (9d81278992624c895f80dd42a50cac0aa55982e2)
C        -1.47093301225081    0.51813788772651   -0.12620122596774
C        -0.50695684321413   -0.44014710099231   -0.67157950682650
C         0.75292633563547   -0.48598988454410    0.12027483225885
C        -0.50249379652790   -0.06833370294349    0.80287605921120
C         1.72745831635737    0.47633280075340   -0.12537115867581
5
 energy: -10.184895084201 gnorm: 0.230695783352 xtb: 6.2.2 (9d81278992624c895f80dd42a50cac0aa55982e2)
C        -1.42525242935883    0.42070904255100   -0.10177374754378
C        -0.51726997187407   -0.41212277372320   -0.67377524105702
C         0.74175498739515   -0.32513019235506    0.07974583230368
C        -0.51283956719574   -0.04261555278166    0.79158729098931
C         1.71360798103350    0.35915947630891   -0.09578513469219
5
 energy: -10.213836987442 gnorm: 0.071467492292 xtb: 6.2.2 (9d81278992624c895f80dd42a50cac0aa55982e2)
C        -1.57907185516571    0.34018107171377   -0.08099988028600
C        -0.52993396991141   -0.37764058777974   -0.68758917128081
C         0.72050523914888   -0.27330614430482    0.06674940679428
C        -0.52548402200341   -0.00570259618718    0.78747506925517
C         1.91398560793164    0.31646825655797   -0.08563642448263
5
 energy: -10.218888252079 gnorm: 0.089489731359 xtb: 6.2.2 (9d81278992624c895f80dd42a50cac0aa55982e2)
C        -1.68653128481055    0.25579842485215   -0.05939667056464
C        -0.50914124877113   -0.31549183464820   -0.70596663831138
C         0.73245961098236   -0.22832196577154    0.05537064818191
C        -0.50467522692851    0.05769265458947    0.77406915869628
C         1.96788914952783    0.23032272097812   -0.06407749800217
5
 energy: -10.224811267052 gnorm: 0.051915896758 xtb: 6.2.2 (9d81278992624c895f80dd42a50cac0aa55982e2)
C        -1.67946820392028    0.21321020030359   -0.04868017616392
C        -0.52364343855952   -0.30529851730099   -0.70597461113235
C         0.72891997985594   -0.16601507320105    0.03967233653111
C        -0.51919097946818    0.06668465760605    0.76932817040299
C         1.99338364209204    0.19141873259240   -0.05434671963784
5
 energy: -10.228179186866 gnorm: 0.034321472072 xtb: 6.2.2 (9d81278992624c895f80dd42a50cac0aa55982e2)
C        -1.67074393459566    0.15706468776289   -0.03455131357660
C        -0.52118371988828   -0.27343859365795   -0.71273580189744
C         0.73238744473412   -0.12020837314254    0.02811332700085
C        -0.51673089137218    0.09793105287903    0.76016101084740
C         1.97627210112200    0.13865122615858   -0.04098822237421
5
 energy: -10.229580004827 gnorm: 0.053945748615 xtb: 6.2.2 (9d81278992624c895f80dd42a50cac0aa55982e2)
C        -1.72379988820465    0.03708800474676   -0.00413764217544
C        -0.52604720228784   -0.21640590559004   -0.72750627176648
C         0.72487502976681   -0.00941720738169    0.00021131565445
C        -0.52159991796309    0.15512964948863    0.74615552777082
C         2.04657297868877    0.03360545873633   -0.01472392948335
5
 energy: -10.230847507142 gnorm: 0.007027137384 xtb: 6.2.2 (9d81278992624c895f80dd42a50cac0aa55982e2)
C        -1.69951510814418    0.07184147740620   -0.01297452687271
C        -0.52147996768504   -0.23007838795383   -0.72493593079629
C         0.72700063480777   -0.05051078748221    0.01056663452338
C        -0.51702810646833    0.14186981806243    0.75034844069550
C         2.01102354748978    0.06687787996741   -0.02300561754989
5
 energy: -10.231195526126 gnorm: 0.007445140306 xtb: 6.2.2 (9d81278992624c895f80dd42a50cac0aa55982e2)
C        -1.70337786093000    0.04517393807139   -0.00623859461435
C        -0.52085733428313   -0.21542581248738   -0.72929745323023
C         0.72648346029671   -0.03151589785274    0.00578484109148
C        -0.51640577829339    0.15682694396989    0.74723905385195
C         2.01415851320981    0.04494082829884   -0.01748884709886
5
 energy: -10.231448048654 gnorm: 0.007127446798 xtb: 6.2.2 (9d81278992624c895f80dd42a50cac0aa55982e2)
C        -1.70412112511398    0.00172750174837    0.00471632333652
C        -0.52202448110888   -0.19295052690077   -0.73575584591941
C         0.72537976696399    0.00139281048680   -0.00249753996774
C        -0.51757743958597    0.17965502637697    0.74228290995949
C         2.01834427884485    0.01017518828863   -0.00874684740886
5
 energy: -10.231475918826 gnorm: 0.001441945060 xtb: 6.2.2 (9d81278992624c895f80dd42a50cac0aa55982e2)
C        -1.70220808572272   -0.00227956146633    0.00571804048490
C        -0.52164462090816   -0.18996617310380   -0.73653745782348
C         0.72599449420816    0.00190224324841   -0.00262710406145
C        -0.51719545868337    0.18264821118436    0.74155790362293
C         2.01505467110609    0.00769528013736   -0.00811238222290
5
 energy: -10.231477662228 gnorm: 0.000616577809 xtb: 6.2.2 (9d81278992624c895f80dd42a50cac0aa55982e2)
C        -1.70167983425426   -0.00628630866734    0.00672488128137
C        -0.52209064357185   -0.18780097221561   -0.73682525706833
C         0.72615504976112    0.00449307556362   -0.00327520714846
C        -0.51764490285590    0.18468156844712    0.74079074154750
C         2.01526133092090    0.00491263687220   -0.00741615861208
