 Entering Gaussian System
 *********************************************
 Gaussian 98:
 frequency output generated by the xtb code
 *********************************************
                         Standard orientation:
 --------------------------------------------------------------------
  Center     Atomic     Atomic              Coordinates (Angstroms)
  Number     Number      Type              X           Y           Z
 --------------------------------------------------------------------
    1          6             0       -1.701680   -0.006277    0.006731
    2          6             0       -0.522094   -0.187800   -0.736823
    3          6             0        0.726155    0.004489   -0.003278
    4          6             0       -0.517641    0.184686    0.740792
    5          6             0        2.015261    0.004902   -0.007423
 --------------------------------------------------------------------
     1 basis functions        1 primitive gaussians
     1 alpha electrons        1 beta electrons

 Harmonic frequencies (cm**-1), IR intensities (KM/Mole),
 Raman scattering activities (A**4/amu), Raman depolarization ratios,
 reduced masses (AMU), force constants (mDyne/A) and normal coordinates:
                      1                      2                      3
                        a                      a                      a 
 Frequencies --  -202.0819               206.9738               362.8899
 Red. masses --    12.0107                12.0107                12.0107
 Frc consts  --     0.0000                 0.0000                 0.0000
 IR Inten    --     0.6784                 0.6114                 1.7702
 Raman Activ --     0.0000                 0.0000                 0.0000
 Depolar     --     0.0000                 0.0000                 0.0000
 Atom AN      X      Y      Z        X      Y      Z        X      Y      Z
   1   6    -0.00  -0.08  -0.31    -0.00   0.56  -0.14     0.00   0.13   0.49
   2   6     0.17   0.03   0.11     0.00  -0.30   0.08    -0.05  -0.12  -0.49
   3   6     0.00   0.17   0.66     0.00  -0.46   0.11     0.00   0.11   0.45
   4   6    -0.17   0.03   0.11     0.00  -0.30   0.08     0.05  -0.12  -0.49
   5   6    -0.00  -0.14  -0.57     0.00   0.49  -0.12    -0.00   0.01   0.04
                      4                      5                      6
                        a                      a                      a 
 Frequencies --   519.4962               720.4263               738.7343
 Red. masses --    12.0107                12.0107                12.0107
 Frc consts  --     0.0000                 0.0000                 0.0000
 IR Inten    --     0.1948                 0.2276                 0.4632
 Raman Activ --     0.0000                 0.0000                 0.0000
 Depolar     --     0.0000                 0.0000                 0.0000
 Atom AN      X      Y      Z        X      Y      Z        X      Y      Z
   1   6    -0.00  -0.31   0.08     0.53   0.00  -0.00     0.00   0.09   0.34
   2   6    -0.00   0.40  -0.10     0.19  -0.08  -0.31     0.64   0.00  -0.01
   3   6     0.00  -0.69   0.17    -0.42  -0.01   0.00    -0.00  -0.06  -0.23
   4   6    -0.00   0.40  -0.10     0.20   0.08   0.31    -0.64  -0.00  -0.00
   5   6     0.00   0.20  -0.05    -0.51   0.00   0.00    -0.00  -0.02  -0.10
                      7                      8                      9
                        a                      a                      a 
 Frequencies --  1149.1559              1482.2301              1804.5380
 Red. masses --    12.0107                12.0107                12.0107
 Frc consts  --     0.0000                 0.0000                 0.0000
 IR Inten    --     0.2235                 0.0968                 0.3954
 Raman Activ --     0.0000                 0.0000                 0.0000
 Depolar     --     0.0000                 0.0000                 0.0000
 Atom AN      X      Y      Z        X      Y      Z        X      Y      Z
   1   6    -0.13  -0.00   0.00     0.70   0.00  -0.00    -0.05  -0.00   0.00
   2   6     0.34   0.13   0.50    -0.37   0.08   0.32    -0.08  -0.04  -0.15
   3   6    -0.08  -0.00   0.00     0.07   0.00  -0.00     0.78   0.00  -0.00
   4   6     0.34  -0.12  -0.50    -0.38  -0.08  -0.32    -0.08   0.04   0.15
   5   6    -0.47  -0.00   0.00    -0.03   0.00   0.00    -0.57  -0.00   0.00
