[Molden Format]
[Title]
[Atoms] AU
N      1     7 -0.47074295783756E+01 -0.47622950141150E-01 -0.22723262270809E+00
C      2     6 -0.25133810196058E+01 -0.31849603197300E-01 -0.11969387017195E+00
C      3     6  0.23875689542285E+01  0.32770093063556E-01  0.11491332840171E+00
C      4     6 -0.27974096943683E-02 -0.61202977571618E-02 -0.46322634970106E-03
C      5     6  0.48360371637049E+01  0.52820868312723E-01  0.23247450111197E+00
[GTO]
           1 0
 s           4   1.0000000000000000     
   63.594024466941008      -0.19234388414721629     
   10.951417231523665      -0.23478107924953728     
  0.87999310257376984       0.37593753901700888     
  0.33538715296521110       0.14982889271862770     
 p           4   1.0000000000000000     
   7.2965040481495080       0.97658666315667420     
   1.8918745450712575       0.90372226730345739     
  0.66694432110824120       0.47404958461536373     
  0.26552202674130870        7.1516067715011844E-002

           2 0
 s           4   1.0000000000000000     
   51.049363095579913      -0.16312063210127389     
   8.7911227406887544      -0.19911024581000730     
  0.70640422258929825       0.31882047753655751     
  0.26922813413411617       0.12706504184240380     
 p           4   1.0000000000000000     
   5.8263656140800002       0.73716451545209605     
   1.5106896018720002       0.68216371614850257     
  0.53256483288000001       0.35783053929253711     
  0.21202323690600003        5.3983030275847881E-002

           3 0
 s           4   1.0000000000000000     
   51.049363095579913      -0.16312063210127389     
   8.7911227406887544      -0.19911024581000730     
  0.70640422258929825       0.31882047753655751     
  0.26922813413411617       0.12706504184240380     
 p           4   1.0000000000000000     
   5.8263656140800002       0.73716451545209605     
   1.5106896018720002       0.68216371614850257     
  0.53256483288000001       0.35783053929253711     
  0.21202323690600003        5.3983030275847881E-002

           4 0
 s           4   1.0000000000000000     
   51.049363095579913      -0.16312063210127389     
   8.7911227406887544      -0.19911024581000730     
  0.70640422258929825       0.31882047753655751     
  0.26922813413411617       0.12706504184240380     
 p           4   1.0000000000000000     
   5.8263656140800002       0.73716451545209605     
   1.5106896018720002       0.68216371614850257     
  0.53256483288000001       0.35783053929253711     
  0.21202323690600003        5.3983030275847881E-002

           5 0
 s           4   1.0000000000000000     
   51.049363095579913      -0.16312063210127389     
   8.7911227406887544      -0.19911024581000730     
  0.70640422258929825       0.31882047753655751     
  0.26922813413411617       0.12706504184240380     
 p           4   1.0000000000000000     
   5.8263656140800002       0.73716451545209605     
   1.5106896018720002       0.68216371614850257     
  0.53256483288000001       0.35783053929253711     
  0.21202323690600003        5.3983030275847881E-002

[MO]
Sym=     1a
Ene=  -0.69357757288573452     
Spin= Alpha
Occup=     2.00000000
           1 -0.26184146832601557     
           2 -0.14522218436469322     
           3  -1.2369122163502732E-003
           4  -7.0458234954882655E-003
           5 -0.46584908109657325     
           6  -2.9230455056803210E-002
           7  -9.2350961866004733E-004
           8  -1.1755760573725110E-003
           9 -0.25999506545261225     
          10  0.10243096034703106     
          11   1.8150581823374768E-003
          12   4.9340782584817219E-003
          13 -0.45926703986430489     
          14   4.2456606455994896E-002
          15  -3.4407497601688145E-004
          16   1.9574277474030130E-003
          17  -8.3763687002409021E-002
          18   5.1470650058486112E-002
          19   5.5699181398302482E-004
          20   2.4725126729337717E-003
Sym=     2a
Ene=  -0.68758651041155772     
Spin= Alpha
Occup=     2.00000000
           1  0.35411381982369927     
           2  0.14706259074873926     
           3   1.0285559717885281E-003
           4   7.1942112995387955E-003
           5  0.26981196145608277     
           6 -0.20437164378651249     
           7  -1.6882998840751806E-003
           8  -9.9911543122124524E-003
           9 -0.39942113367323040     
          10   2.7669213731886858E-002
          11   1.3162192915930594E-003
          12   1.3477252717548974E-003
          13 -0.24749559792166148     
          14 -0.18909353868969220     
          15  -2.5603324348926469E-003
          16  -9.1452679415168440E-003
          17 -0.23532933129888362     
          18  0.10124436965436019     
          19   1.0206072141429206E-003
          20   4.8622921437744306E-003
Sym=     3a
Ene=  -0.66579239965138892     
Spin= Alpha
Occup=     2.00000000
           1 -0.28538472117443225     
           2  -7.0799791546920066E-002
           3  -3.4531525433246401E-004
           4  -3.5223943194823059E-003
           5   3.0372064818997957E-002
           6  0.27798917455670807     
           7   2.5285765281583068E-003
           8   1.3407814508636130E-002
           9 -0.25375658662156159     
          10 -0.26164034357382460     
          11  -2.5319598570662091E-003
          12  -1.2559216072428174E-002
          13  0.27946767753917506     
          14 -0.12560443685207107     
          15  -1.1935667345149439E-003
          16  -5.9438149956810137E-003
          17 -0.45495489194716188     
          18  0.12035779635670421     
          19   9.8764362258372553E-004
          20   5.7770785939922128E-003
Sym=     4a
Ene=  -0.61902105543707697     
Spin= Alpha
Occup=     2.00000000
           1  0.27374457160018539     
           2  -8.5275124361952354E-003
           3  -5.5296112484274134E-005
           4  -3.0468929513277973E-004
           5 -0.21917263267929210     
           6 -0.28405681630207663     
           7  -1.9159602010697665E-003
           8  -1.3657117826247966E-002
           9  0.15086528291777795     
          10 -0.32961881086092593     
          11  -4.0859187002456618E-003
          12  -1.5925854659037324E-002
          13   2.9239835529961854E-002
          14  0.41504995745309209     
          15   6.0493503913600644E-003
          16   1.9820598362037072E-002
          17 -0.38339191946934731     
          18   1.0458498570452430E-002
          19  -2.4869718545257049E-004
          20   4.7618070512404952E-004
Sym=     5a
Ene=  -0.55182061640928826     
Spin= Alpha
Occup=     2.00000000
           1   1.5296646920966210E-004
           2   2.0441380958247376E-002
           3   3.3753291305183231E-002
           4 -0.42637826622481567     
           5  -5.4456289088309587E-004
           6   2.4316704428212568E-002
           7   4.0284895008583545E-002
           8 -0.50891570942889108     
           9  -2.4127810852652222E-005
          10   1.2646763479031457E-002
          11   2.1090468818723555E-002
          12 -0.26644695333445712     
          13   6.4727805498999768E-005
          14   2.0029434695959261E-002
          15   3.3973109103460256E-002
          16 -0.42927279876198410     
          17   1.3054450640602770E-004
          18   5.1232030053728209E-003
          19   8.5178847919038913E-003
          20 -0.10760636534485392     
Sym=     6a
Ene=  -0.55182032606109011     
Spin= Alpha
Occup=     2.00000000
           1  -5.9287903267630756E-004
           2  -4.6919930154492133E-003
           3  0.42685995999222864     
           4   3.3564421571507339E-002
           5  -5.1405364738592860E-004
           6  -5.9712505294614408E-003
           7  0.50947922596382056     
           8   4.0044455216917428E-002
           9   9.4760736303300009E-004
          10  -3.8034175130829905E-003
          11  0.26673113824299483     
          12   2.0933031687337521E-002
          13  -1.6986462293253741E-003
          14  -7.7007860813742644E-003
          15  0.42969327084567466     
          16   3.3648041537215269E-002
          17   4.0349285806686098E-004
          18  -1.4360774862794625E-003
          19  0.10772409042729759     
          20   8.4587729762879271E-003
Sym=     7a
Ene=  -0.49953118219901943     
Spin= Alpha
Occup=     2.00000000
           1   2.9986633434277931E-003
           2  -3.3640121321584070E-003
           3  0.47420867599073208     
           4  -4.7944234447614364E-002
           5  -1.5342605201802747E-003
           6  -6.8906672663399875E-004
           7  0.27623637784243837     
           8  -2.7864421680810849E-002
           9  -3.9554545452655052E-003
          10   3.2990079910499583E-003
          11 -0.52930956949164765     
          12   5.3494129304483780E-002
          13   2.0370578628331202E-003
          14   2.8178746387431510E-003
          15 -0.31374232293927878     
          16   3.1751999757033314E-002
          17   3.1431234119934895E-003
          18   3.9736949889913791E-003
          19 -0.34529454069730098     
          20   3.4985855606383766E-002
Sym=     8a
Ene=  -0.49953000695800376     
Spin= Alpha
Occup=     2.00000000
           1   5.7553683669478515E-004
           2   2.3031289964820775E-002
           3  -4.7727554269605753E-002
           4 -0.47369077844390173     
           5  -3.1953197243961095E-004
           6   1.3730121640462568E-002
           7  -2.7799177177878331E-002
           8 -0.27590566980033432     
           9   4.5890369008463899E-004
          10  -2.6003411763312521E-002
          11   5.3270920522644115E-002
          12  0.52871756795301195     
          13  -2.6351644873448841E-004
          14  -1.5556462275749123E-002
          15   3.1573864240854219E-002
          16  0.31339618626504778     
          17  -3.6261941307821080E-004
          18  -1.7175286882605903E-002
          19   3.4751167009462583E-002
          20  0.34491534382993977     
Sym=     9a
Ene=  -0.47691442435710490     
Spin= Alpha
Occup=     2.00000000
           1  0.60836137194384743     
           2 -0.61363433244503152     
           3  -7.2675430255275302E-003
           4  -2.9271001550260609E-002
           5 -0.18497994951929347     
           6  0.15682482624528621     
           7   2.6088215469254842E-004
           8   8.0338332880952670E-003
           9 -0.14163995366795890     
          10  -4.1852371385450803E-002
          11   2.7722924397467828E-003
          12  -2.4782144861000620E-003
          13  0.18062449723561938     
          14  -8.6151953043951499E-002
          15   6.7367330861695899E-004
          16  -4.1683864901503479E-003
          17  0.28247189656341776     
          18  0.24873356741877653     
          19   4.7320964465790280E-003
          20   1.1550584473854802E-002
Sym=    10a
Ene=  -0.45502829785482718     
Spin= Alpha
Occup=     2.00000000
           1 -0.23458302209169979     
           2  0.29196908395832899     
           3  -8.7211684173026387E-004
           4   1.4049154688685804E-002
           5   4.1530902716886645E-003
           6 -0.13478776234401041     
           7  -1.4756171482832830E-003
           8  -6.6834764891097291E-003
           9 -0.17215660897189844     
          10 -0.23865157991396124     
          11  -2.1460245308681726E-003
          12  -1.1161985235934724E-002
          13   7.1358188928440369E-002
          14  0.18222077016078816     
          15   5.7299622120208071E-003
          16   8.7793502212548322E-003
          17  0.55313931190641952     
          18  0.61988128006563958     
          19   4.9398782453068885E-003
          20   3.0090037302762704E-002
Sym=    11a
Ene=  -0.40095747042479274     
Spin= Alpha
Occup=     0.50005697
           1   1.5014294661818287E-004
           2   2.2074104055711800E-002
           3  -9.8824089079828967E-002
           4 -0.44253394866872725     
           5   2.7314564691420209E-004
           6  -5.7223378151538013E-003
           7   2.6732040661942423E-002
           8  0.11971126962041390     
           9   1.7414908646990504E-005
          10   8.6759921675605874E-003
          11  -3.8188353637080445E-002
          12 -0.17099707652620991     
          13  -9.4428978578852470E-004
          14  -2.8728318159723397E-002
          15  0.12570196920087048     
          16  0.56288177126318206     
          17  -1.5012036139980115E-004
          18   3.1388834602916034E-002
          19 -0.14210501306218459     
          20 -0.63632483264968775     
Sym=    12a
Ene=  -0.40095703744151112     
Spin= Alpha
Occup=     0.49994303
           1  -5.3928957474888572E-004
           2   3.3770157226396627E-003
           3  0.44307247807941103     
           4  -9.8781317280813075E-002
           5  -3.2189713639509430E-004
           6  -1.2631552447614520E-003
           7 -0.11984974857783698     
           8   2.6702236997458634E-002
           9   1.1963394623248796E-004
          10  -7.1489920382592062E-004
          11  0.17119894267568400     
          12  -3.8267197774751856E-002
          13   2.3111980463148525E-003
          14   2.6487255341213546E-003
          15 -0.56353950298702671     
          16  0.12598791343244051     
          17   9.9363875762282800E-004
          18   3.7764567286856371E-003
          19  0.63709756255659089     
          20 -0.14208840060591157     
Sym=    13a
Ene=  -0.25758647640080534     
Spin= Alpha
Occup=     0.00000000
           1  -1.5459528983089322E-004
           2   3.0162934170595685E-003
           3 -0.56100565070842168     
           4   4.4068073734851103E-002
           5  -1.8504985828339657E-003
           6  -3.5434936846303671E-003
           7  0.62307380444980409     
           8  -4.8953782325399195E-002
           9  -3.9892293493292734E-003
          10   5.6885161087986942E-003
          11 -0.53492939259215899     
          12   4.2156694656509536E-002
          13   2.5109773379718772E-003
          14   7.2159036054589407E-004
          15  -2.6021232016248529E-002
          16   2.0770793070519324E-003
          17  -3.7797356586122591E-004
          18  -4.7610351876776627E-003
          19  0.57881637105681416     
          20  -4.5547316578398007E-002
Sym=    14a
Ene=  -0.25758243877683823     
Spin= Alpha
Occup=     0.00000000
           1   5.6070951728911226E-005
           2   2.7481252007547759E-002
           3  -4.3867619785678172E-002
           4 -0.56035617628563161     
           5   6.4648018693363020E-004
           6  -3.0336862297871799E-002
           7   4.8722812313328680E-002
           8  0.62237229831063690     
           9  -3.0210151712128534E-004
          10   2.6254143487921634E-002
          11  -4.1834893231413713E-002
          12 -0.53435124911025422     
          13  -1.4151179500926950E-004
          14   1.6230765175756952E-003
          15  -2.0293058778949836E-003
          16  -2.6000194012989173E-002
          17  -4.5906941960728741E-005
          18  -2.8243502595141700E-002
          19   4.5266760921537537E-002
          20  0.57817211858719653     
Sym=    15a
Ene=  -0.12473117900195130     
Spin= Alpha
Occup=     0.00000000
           1   4.9410299640812003E-004
           2   4.4335046310063023E-003
           3 -0.37501461890494897     
           4   1.1515067057135578E-002
           5  -3.7628810510115344E-003
           6  -5.5901404325962240E-003
           7  0.61963899002249456     
           8  -1.8941616965777664E-002
           9   2.0397432318439027E-003
          10  -5.6207438219371009E-003
          11  0.67245384528946395     
          12  -2.0545842968896395E-002
          13   3.9077603218714181E-003
          14   6.3937199014664145E-003
          15 -0.70802770592131392     
          16   2.1653891160113535E-002
          17  -3.0575498981091269E-004
          18   4.1705738253445144E-003
          19 -0.40278343034532871     
          20   1.2345282978855040E-002
Sym=    16a
Ene=  -0.12472201027025087     
Spin= Alpha
Occup=     0.00000000
           1  -9.7085057612409712E-005
           2   1.8033021497882676E-002
           3  -1.1294540388498760E-002
           4 -0.37460662829522012     
           5   6.5953227769129129E-004
           6  -3.0112026596441525E-002
           7   1.8659331890999848E-002
           8  0.61894767215953017     
           9   2.3383717811448619E-004
          10  -3.2546754746231893E-002
          11   2.0244680658725863E-002
          12  0.67171102392782867     
          13   6.4764494907425336E-005
          14   3.4298218524191341E-002
          15  -2.1318668660805177E-002
          16 -0.70725680836916793     
          17  -3.2270678075744182E-005
          18   1.9572098010428068E-002
          19  -1.2125342335860200E-002
          20 -0.40233298264578765     
Sym=    17a
Ene=    5.9441078562716888E-002
Spin= Alpha
Occup=     0.00000000
           1  0.16462395459598414     
           2  0.39355074244651217     
           3   5.2215600575974581E-003
           4   1.8665599582298582E-002
           5 -0.77454454131778872     
           6 -0.28932871248824316     
           7  -7.3073714663261236E-003
           8  -1.2833300545428968E-002
           9 -0.69411352057233389     
          10  0.17995589605777532     
          11   4.7348773379485131E-003
          12   8.7210069102233341E-003
          13  0.90658540166353574     
          14 -0.11106367693542490     
          15   3.5985362383561875E-003
          16  -5.1550465012316533E-003
          17  0.19112599325138649     
          18 -0.41442455493264796     
          19  -4.8337399369629214E-003
          20  -1.9935604401629860E-002
Sym=    18a
Ene=   0.43904504993914151     
Spin= Alpha
Occup=     0.00000000
           1 -0.32295486110046978     
           2 -0.44991153650316512     
           3  -3.8381021941835207E-003
           4  -2.1753049218904145E-002
           5  0.77736000657234605     
           6  -3.8121117641272712E-002
           7   1.5561951747892851E-003
           8  -2.7626395465617606E-003
           9 -0.93257921444147673     
          10 -0.35103681611770488     
          11   2.0811123193139715E-003
          12  -1.6723940644382988E-002
          13  -9.7437214726973823E-002
          14  0.69237933719479461     
          15   5.9778783961728357E-003
          16   3.3326349143598458E-002
          17  0.51192483080230455     
          18 -0.70284126569339045     
          19  -7.1984582816489806E-003
          20  -3.3785123508898882E-002
Sym=    19a
Ene=   0.99919522339788491     
Spin= Alpha
Occup=     0.00000000
           1 -0.69143851214353957     
           2 -0.69407333130124327     
           3  -4.5136531668368406E-003
           4  -3.4071970808155917E-002
           5  0.50556558041745159     
           6 -0.92776532219601993     
           7  -8.2599528351495373E-003
           8  -4.5313671863053677E-002
           9   4.0729742966604282E-002
          10  0.98851475814058065     
          11   1.1678271494694628E-002
          12   4.7442962761295129E-002
          13  0.79952149473464362     
          14  0.24490724719973631     
          15   6.2936193863479045E-003
          16   1.2375927920153297E-002
          17 -0.50812836532581318     
          18  0.52473901021319214     
          19   3.4145581394761171E-003
          20   2.5200073539462402E-002
Sym=    20a
Ene=    1.4169309740825577     
Spin= Alpha
Occup=     0.00000000
           1  0.59705948876951431     
           2  0.52116157345282099     
           3   3.5649133814210786E-003
           4   2.5807600890438549E-002
           5  0.11179633678296375     
           6   1.1488841668754206     
           7   9.0888268001291309E-003
           8   5.5256783722387168E-002
           9 -0.38257500523605154     
          10   1.0337744000167732     
          11   1.4855001841801996E-002
          12   4.9974068922863060E-002
          13   8.1267458229283343E-002
          14   1.2715049285420352     
          15   1.8123511389187046E-002
          16   6.0738533356848708E-002
          17 -0.40257134827634955     
          18  0.36872979755975216     
          19   1.6568352249522024E-003
          20   1.7629868282286288E-002
