 Entering Gaussian System
 *********************************************
 Gaussian 98:
 frequency output generated by the xtb code
 *********************************************
                         Standard orientation:
 --------------------------------------------------------------------
  Center     Atomic     Atomic              Coordinates (Angstroms)
  Number     Number      Type              X           Y           Z
 --------------------------------------------------------------------
    1          6             0        2.077235   -0.576330    0.868946
    2          7             0        1.031655   -0.382537    0.287148
    3          6             0       -0.092058    0.213014    0.242625
    4          6             0       -1.216427    0.497173   -0.269486
    5          1             0       -1.800404    0.248679   -1.129234
 --------------------------------------------------------------------
     1 basis functions        1 primitive gaussians
     1 alpha electrons        1 beta electrons

 Harmonic frequencies (cm**-1), IR intensities (KM/Mole),
 Raman scattering activities (A**4/amu), Raman depolarization ratios,
 reduced masses (AMU), force constants (mDyne/A) and normal coordinates:
                      1                      2                      3
                        a                      a                      a 
 Frequencies --   153.1733               201.3131               436.9686
 Red. masses --     9.5836                11.7565                12.7488
 Frc consts  --     0.0000                 0.0000                 0.0000
 IR Inten    --     0.1744                 0.2087                 0.0717
 Raman Activ --     0.0000                 0.0000                 0.0000
 Depolar     --     0.0000                 0.0000                 0.0000
 Atom AN      X      Y      Z        X      Y      Z        X      Y      Z
   1   6    -0.08   0.29   0.37     0.22   0.40  -0.27    -0.29   0.24   0.12
   2   7     0.11  -0.23  -0.26    -0.20  -0.35   0.24    -0.05  -0.32  -0.52
   3   6     0.07  -0.32  -0.42    -0.22  -0.39   0.26     0.06   0.30   0.50
   4   6    -0.03   0.19   0.26     0.17   0.31  -0.21     0.28  -0.20  -0.06
   5   1    -0.31   0.32   0.22     0.11   0.19  -0.13    -0.00   0.03   0.03
                      4                      5                      6
                        a                      a                      a 
 Frequencies --   476.8318               649.4201              1053.5311
 Red. masses --     6.7588                 4.6655                12.3421
 Frc consts  --     0.0000                 0.0000                 0.0000
 IR Inten    --     0.2987                 0.3999                 0.1285
 Raman Activ --     0.0000                 0.0000                 0.0000
 Depolar     --     0.0000                 0.0000                 0.0000
 Atom AN      X      Y      Z        X      Y      Z        X      Y      Z
   1   6     0.05   0.10  -0.07     0.15  -0.14  -0.08     0.40  -0.08   0.22
   2   7    -0.14  -0.25   0.17    -0.03   0.14   0.18     0.39  -0.31  -0.14
   3   6     0.19   0.33  -0.23    -0.06   0.12   0.13    -0.27   0.25   0.15
   4   6    -0.18  -0.32   0.21     0.12  -0.27  -0.31    -0.53   0.17  -0.19
   5   1     0.30   0.53  -0.36    -0.61   0.50   0.23    -0.08  -0.03  -0.11
                      7                      8                      9
                        a                      a                      a 
 Frequencies --  1725.2656              1912.8921              3105.4895
 Red. masses --    12.4216                12.2735                 2.0260
 Frc consts  --     0.0000                 0.0000                 0.0000
 IR Inten    --     1.3755                 1.5102                 0.0608
 Raman Activ --     0.0000                 0.0000                 0.0000
 Depolar     --     0.0000                 0.0000                 0.0000
 Atom AN      X      Y      Z        X      Y      Z        X      Y      Z
   1   6     0.56  -0.12   0.29    -0.20   0.02  -0.14    -0.01   0.00  -0.01
   2   7    -0.50   0.10  -0.27     0.42  -0.13   0.16     0.02  -0.00   0.01
   3   6    -0.34   0.09  -0.14    -0.65   0.21  -0.24     0.03  -0.01   0.01
   4   6     0.28  -0.07   0.13     0.38  -0.10   0.17    -0.19  -0.05  -0.23
   5   1     0.13  -0.04   0.06     0.09   0.01   0.09     0.54   0.20   0.76
