      -----------------------------------------------------------      
     |                   =====================                   |     
     |                           x T B                           |     
     |                   =====================                   |     
     |                         S. Grimme                         |     
     |          Mulliken Center for Theoretical Chemistry        |     
     |                    University of Bonn                     |     
      -----------------------------------------------------------      

   * xtb version 6.2.2 (9d81278992624c895f80dd42a50cac0aa55982e2) compiled by '@Darwin' on 04/03/2020

   xtb is free software: you can redistribute it and/or modify it under
   the terms of the GNU Lesser General Public License as published by
   the Free Software Foundation, either version 3 of the License, or
   (at your option) any later version.
   
   xtb is distributed in the hope that it will be useful,
   but WITHOUT ANY WARRANTY; without even the implied warranty of
   MERCHANTABILITY or FITNESS FOR A PARTICULAR PURPOSE.  See the
   GNU Lesser General Public License for more details.
   
   Cite this work as:
   * S. Grimme, C. Bannwarth, P. Shushkov, J. Chem. Theory Comput., 2017,
     13, 1989-2009. DOI: 10.1021/acs.jctc.7b00118
   * C. Bannwarth, S. Ehlert and S. Grimme., J. Chem. Theory Comput., 2019,
     15, 1652-1671. DOI: 10.1021/acs.jctc.8b01176
   * P. Pracht, E. Caldeweyher, S. Ehlert, S. Grimme, ChemRxiv, 2019, preprint.
     DOI: 10.26434/chemrxiv.8326202.v1
   
   for DFT-D4:
   * E. Caldeweyher, C. Bannwarth and S. Grimme, J. Chem. Phys., 2017,
     147, 034112. DOI: 10.1063/1.4993215
   * E. Caldeweyher, S. Ehlert, A. Hansen, H. Neugebauer, S. Spicher,
     C. Bannwarth and S. Grimme, J. Chem. Phys., 2019, 150, 154122.
     DOI: 10.1063/1.5090222
   
   for sTDA-xTB:
   * S. Grimme and C. Bannwarth, J. Chem. Phys., 2016, 145, 054103.
     DOI: 10.1063/1.4959605
   
   in the mass-spec context:
   * V. Asgeirsson, C. Bauer and S. Grimme, Chem. Sci., 2017, 8, 4879.
     DOI: 10.1039/c7sc00601b
   
   for metadynamics refer to:
   * S. Grimme, J. Chem. Theory Comput., 2019, 155, 2847-2862
     DOI: 10.1021/acs.jctc.9b00143
   
   with help from (in alphabetical order)
   C. Bannwarth, F. Bohle, G. Brandenburg, E. Caldeweyher, M. Checinski,
   S. Dohm, S. Ehlert, S. Ehrlich, F. März, H. Neugebauer, J. Pisarek,
   P. Pracht, P. Shushkov, and S. Spicher.
   
 * started run on 2020/05/12 at 11:44:55.008     

           -------------------------------------------------
          |                Calculation Setup                |
           -------------------------------------------------

          program call               : xtb --input H1C3N1_12_S_2.input H1C3N1_12_S_2.xyz --ohess --molden --namespace H1C3N1_12_S_2 output.out
          calculation namespace      : H1C3N1_12_S_2
          coordinate file            : H1C3N1_12_S_2.xyz
          number of atoms            :                     5
          number of electrons        :                    18
          charge                     :                     0
          spin                       :                   1.0
          first test random number   :      0.20187383966159

   ID    Z sym.   atoms
    1    6 C      1, 3, 4
    2    7 N      2
    3    1 H      5

           -------------------------------------------------
          |                 G F N 2 - x T B                 |
           -------------------------------------------------

        Reference                      10.1021/acs.jctc.8b01176
      * Hamiltonian:
        H0-scaling (s, p, d)           1.850000    2.230000    2.230000
        zeta-weighting                 0.500000
      * Dispersion:
        s8                             2.700000
        a1                             0.520000
        a2                             5.000000
        s9                             5.000000
      * Repulsion:
        kExp                           1.500000    1.000000
        rExp                           1.000000
      * Coulomb:
        alpha                          2.000000
        third order                    shell-resolved
        anisotropic                    true
        a3                             3.000000
        a5                             4.000000
        cn-shift                       1.200000
        cn-exp                         4.000000
        max-rad                        5.000000


          ...................................................
          :                      SETUP                      :
          :.................................................:
          :  # basis functions                  17          :
          :  # atomic orbitals                  17          :
          :  # shells                            9          :
          :  # electrons                        18          :
          :  max. iterations                   250          :
          :  Hamiltonian                  GFN2-xTB          :
          :  restarted?                      false          :
          :  GBSA solvation                  false          :
          :  PC potential                    false          :
          :  electronic temp.          300.0000000     K    :
          :  accuracy                    1.0000000          :
          :  -> integral cutoff          0.2500000E+02      :
          :  -> integral neglect         0.1000000E-07      :
          :  -> SCF convergence          0.1000000E-05 Eh   :
          :  -> wf. convergence          0.1000000E-03 e    :
          :  Broyden damping             0.4000000          :
          ...................................................

 iter      E             dE          RMSdq      gap      omega  full diag
   1     -9.3710909 -0.937109E+01  0.911E+00    0.82       0.0  T
   2     -8.5334424  0.837648E+00  0.977E+00    0.65       1.0  T
   3     -8.0594187  0.474024E+00  0.112E+01    1.25       1.0  T
   4     -9.4102913 -0.135087E+01  0.413E+00    0.67       1.0  T
   5     -9.4437941 -0.335029E-01  0.183E+00    0.57       1.0  T
   6     -9.4440890 -0.294849E-03  0.169E+00    0.59       1.0  T
   7     -9.4439558  0.133194E-03  0.164E+00    0.58       1.0  T
   8     -9.4447921 -0.836305E-03  0.811E-01    0.57       1.0  T
   9     -9.4480344 -0.324227E-02  0.250E-01    0.53       1.0  T
  10     -9.4480888 -0.543964E-04  0.206E-01    0.53       1.0  T
  11     -9.4480792  0.956888E-05  0.814E-02    0.53       1.0  T
  12     -9.4481146 -0.353675E-04  0.256E-02    0.53       1.7  T
  13     -9.4481180 -0.347430E-05  0.408E-03    0.53      11.0  T
  14     -9.4481181 -0.805908E-07  0.104E-03    0.53      43.0  T
  15     -9.4481181 -0.860842E-08  0.411E-04    0.53     108.8  T
  16     -9.4481181 -0.263364E-09  0.708E-05    0.53     631.5  T

   *** convergence criteria satisfied after 16 iterations ***

         #    Occupation            Energy/Eh            Energy/eV
      -------------------------------------------------------------
         1        2.0000           -0.6857828             -18.6611
       ...           ...                  ...                  ...
         4        2.0000           -0.5560470             -15.1308
         5        2.0000           -0.5296062             -14.4113
         6        2.0000           -0.5158744             -14.0377
         7        2.0000           -0.4906220             -13.3505
         8        2.0000           -0.4477811             -12.1847
         9        1.0000           -0.4102968             -11.1647
        10        1.0000           -0.3861049             -10.5064 (HOMO)
        11        0.0000           -0.3667204              -9.9790 (LUMO)
        12                         -0.3494497              -9.5090
        13                         -0.2976468              -8.0994
        14                          0.0235386               0.6405
        15                          0.0676963               1.8421
       ...                                ...                  ...
        17                          0.1331616               3.6235
      -------------------------------------------------------------
                  HL-Gap            0.0193844 Eh            0.5275 eV
             Fermi-level           -0.4027258 Eh          -10.9587 eV

 transition dipole moment (au) for excitation:           9          10
     X       Y       Z   
  -0.7237   0.3316  -0.5487  total (au/Debye):    0.967   2.458
 dE (eV)             :    0.658
 oscillator strength :  0.21321E-01

 SCC (total)                   0 d,  0 h,  0 min,  0.006 sec
 SCC setup                      ...        0 min,  0.000 sec (  1.494%)
 Dispersion                     ...        0 min,  0.000 sec (  0.310%)
 integral evaluation            ...        0 min,  0.001 sec ( 18.958%)
 zeroth order Hamiltonian       ...        0 min,  0.000 sec (  0.455%)
 iterations                     ...        0 min,  0.002 sec ( 41.732%)
 molecular gradient             ...        0 min,  0.001 sec ( 19.095%)
 printout                       ...        0 min,  0.001 sec ( 17.683%)

         :::::::::::::::::::::::::::::::::::::::::::::::::::::
         ::                     SUMMARY                     ::
         :::::::::::::::::::::::::::::::::::::::::::::::::::::
         :: total energy              -9.396653570405 Eh    ::
         :: gradient norm              0.320253804895 Eh/a0 ::
         :: HOMO-LUMO gap              0.527477695602 eV    ::
         ::.................................................::
         :: SCC energy                -9.448118114314 Eh    ::
         :: -> isotropic ES           -0.019556036224 Eh    ::
         :: -> anisotropic ES         -0.000160139298 Eh    ::
         :: -> anisotropic XC          0.011306988812 Eh    ::
         :: -> dispersion             -0.002118243004 Eh    ::
         :: repulsion energy           0.051464645645 Eh    ::
         :: add. restraining           0.000000000000 Eh    ::
         :::::::::::::::::::::::::::::::::::::::::::::::::::::

      ----------------------------------------------------------- 
     |                   =====================                   |
     |                        A N C O P T                        |
     |                   =====================                   |
     |               Approximate Normal Coordinate               |
     |                Rational Function Optimizer                |
      ----------------------------------------------------------- 

          ...................................................
          :                      SETUP                      :
          :.................................................:
          :   optimization level            normal          :
          :   max. optcycles                   200          :
          :   ANC micro-cycles                  20          :
          :   degrees of freedom                 9          :
          :.................................................:
          :   RF solver                   davidson          :
          :   write xtbopt.log                true          :
          :   linear?                        false          :
          :   energy convergence         0.5000000E-05 Eh   :
          :   grad. convergence          0.1000000E-02 Eh/α :
          :   maximium RF displ.         1.0000000          :
          :   Hlow (freq-cutoff)         0.1000000E-01      :
          :   Hmax (freq-cutoff)         5.0000000          :
          :   S6 in model hess.         20.0000000          :
          ...................................................

generating ANC from model Hessian ...
Using Lindh-Hessian (1995)
 Shifting diagonal of input Hessian by    4.8475237426760303E-003
 Lowest  eigenvalues of input Hessian
   -0.000000   -0.000000    0.000000    0.000000    0.000000    0.000000
    0.010000    0.014191    0.053551    0.076192    0.135385    0.692017
    0.891215    0.980116    1.174886
 Highest eigenvalues
    0.076192    0.135385    0.692017    0.891215    0.980116    1.174886


........................................................................
.............................. CYCLE    1 ..............................
........................................................................
   1     -9.4481181 -0.944812E+01  0.272E-05    0.53       0.0  T
   2     -9.4481181  0.912230E-10  0.964E-05    0.53     463.9  T
   3     -9.4481181 -0.883809E-10  0.277E-05    0.53    1617.1  T
     SCC iter.                  ...        0 min,  0.001 sec
     gradient                   ...        0 min,  0.001 sec
 * total energy  :    -9.3966536 Eh     change       -0.2056915E-09 Eh
   gradient norm :     0.3202542 Eh/α   predicted     0.0000000E+00 (-100.00%)
   displ. norm   :     0.3451134 α      lambda       -0.1079739E+00
   maximum displ.:     0.2282453 α      in ANC's #6, #7, #9, ...

........................................................................
.............................. CYCLE    2 ..............................
........................................................................
   1     -9.5766556 -0.957666E+01  0.262E+00    0.95       0.0  T
   2     -9.5009373  0.757183E-01  0.353E+00    1.20       1.0  T
   3     -9.5625415 -0.616042E-01  0.210E+00    0.84       1.0  T
   4     -9.5751096 -0.125681E-01  0.154E+00    1.04       1.0  T
   5     -9.5916139 -0.165043E-01  0.790E-01    0.96       1.0  T
   6     -9.5947182 -0.310426E-02  0.147E-01    0.95       1.0  T
   7     -9.5947434 -0.252673E-04  0.498E-02    0.95       1.0  T
   8     -9.5947513 -0.786430E-05  0.138E-02    0.94       3.2  T
   9     -9.5947515 -0.218830E-06  0.717E-03    0.94       6.2  T
  10     -9.5947518 -0.316759E-06  0.100E-03    0.94      44.6  T
  11     -9.5947518 -0.129500E-08  0.166E-04    0.94     269.6  T
  12     -9.5947518  0.119673E-10  0.886E-05    0.94     504.8  T
     SCC iter.                  ...        0 min,  0.002 sec
     gradient                   ...        0 min,  0.001 sec
 * total energy  :    -9.4906227 Eh     change       -0.9396909E-01 Eh
   gradient norm :     0.2156399 Eh/α   predicted    -0.6041694E-01 ( -35.71%)
   displ. norm   :     0.5640250 α      lambda       -0.1147236E+00
   maximum displ.:     0.3576415 α      in ANC's #6, #7, #9, ...

........................................................................
.............................. CYCLE    3 ..............................
........................................................................
   1     -9.7980197 -0.979802E+01  0.323E+00    1.86       0.0  T
   2     -9.8041649 -0.614519E-02  0.195E+00    1.83       1.0  T
   3     -9.8010407  0.312427E-02  0.129E+00    1.74       1.0  T
   4     -9.7778127  0.232280E-01  0.171E+00    1.92       1.0  T
   5     -9.8048389 -0.270262E-01  0.535E-01    1.76       1.0  T
   6     -9.8071973 -0.235840E-02  0.108E-01    1.78       1.0  T
   7     -9.8072107 -0.134382E-04  0.310E-02    1.78       1.4  T
   8     -9.8072126 -0.188708E-05  0.507E-03    1.78       8.8  T
   9     -9.8072126 -0.148596E-07  0.107E-03    1.78      41.7  T
  10     -9.8072126 -0.325405E-08  0.201E-04    1.78     222.3  T
  11     -9.8072126 -0.335945E-10  0.555E-05    1.78     805.5  T
     SCC iter.                  ...        0 min,  0.001 sec
     gradient                   ...        0 min,  0.001 sec
 * total energy  :    -9.5089966 Eh     change       -0.1837399E-01 Eh
   gradient norm :     0.3928312 Eh/α   predicted    -0.7560999E-01 ( 311.51%)
   displ. norm   :     0.3976964 α      lambda       -0.9464949E-01
   maximum displ.:     0.2591763 α      in ANC's #4, #2, #3, ...

........................................................................
.............................. CYCLE    4 ..............................
........................................................................
   1     -9.6955140 -0.969551E+01  0.180E+00    1.43       0.0  T
   2     -9.6771413  0.183727E-01  0.171E+00    1.64       1.0  T
   3     -9.6741637  0.297757E-02  0.169E+00    1.39       1.0  T
   4     -9.7012931 -0.271293E-01  0.622E-01    1.55       1.0  T
   5     -9.7017139 -0.420890E-03  0.297E-01    1.54       1.0  T
   6     -9.7020618 -0.347861E-03  0.128E-01    1.56       1.0  T
   7     -9.7021050 -0.432315E-04  0.327E-02    1.56       1.4  T
   8     -9.7021071 -0.204618E-05  0.446E-03    1.56      10.0  T
   9     -9.7021071  0.298927E-07  0.224E-03    1.56      20.0  T
  10     -9.7021071 -0.427499E-07  0.442E-04    1.56     101.3  T
  11     -9.7021071 -0.711484E-09  0.428E-05    1.56    1045.1  T
     SCC iter.                  ...        0 min,  0.001 sec
     gradient                   ...        0 min,  0.001 sec
 * total energy  :    -9.5424329 Eh     change       -0.3343620E-01 Eh
   gradient norm :     0.0835956 Eh/α   predicted    -0.5480975E-01 (  63.92%)
   displ. norm   :     0.4001384 α      lambda       -0.9917721E-02
   maximum displ.:     0.3020272 α      in ANC's #2, #1, #3, ...

........................................................................
.............................. CYCLE    5 ..............................
........................................................................
   1     -9.7150655 -0.971507E+01  0.155E+00    1.21       0.0  T
   2     -9.7147152  0.350229E-03  0.963E-01    1.24       1.0  T
   3     -9.7078780  0.683719E-02  0.102E+00    1.13       1.0  T
   4     -9.7093733 -0.149526E-02  0.809E-01    1.27       1.0  T
   5     -9.7161562 -0.678292E-02  0.158E-01    1.20       1.0  T
   6     -9.7163022 -0.145984E-03  0.503E-02    1.20       1.0  T
   7     -9.7163151 -0.128693E-04  0.141E-02    1.21       3.2  T
   8     -9.7163151 -0.748942E-08  0.203E-03    1.21      22.1  T
   9     -9.7163151 -0.911376E-08  0.713E-04    1.21      62.7  T
  10     -9.7163151 -0.280749E-08  0.188E-04    1.21     237.5  T
     SCC iter.                  ...        0 min,  0.001 sec
     gradient                   ...        0 min,  0.001 sec
 * total energy  :    -9.5442930 Eh     change       -0.1860165E-02 Eh
   gradient norm :     0.0565799 Eh/α   predicted    -0.5752832E-02 ( 209.26%)
   displ. norm   :     0.4095891 α      lambda       -0.1138094E-01
   maximum displ.:     0.3737725 α      in ANC's #1, #6, #7, ...

........................................................................
.............................. CYCLE    6 ..............................
........................................................................
   1     -9.7591596 -0.975916E+01  0.159E+00    1.30       0.0  T
   2     -9.7586059  0.553705E-03  0.969E-01    1.32       1.0  T
   3     -9.7409644  0.176415E-01  0.139E+00    1.20       1.0  T
   4     -9.7568209 -0.158565E-01  0.584E-01    1.32       1.0  T
   5     -9.7601031 -0.328221E-02  0.133E-01    1.29       1.0  T
   6     -9.7601931 -0.899184E-04  0.480E-02    1.29       1.0  T
   7     -9.7601974 -0.433936E-05  0.212E-02    1.29       2.1  T
   8     -9.7601991 -0.166691E-05  0.222E-03    1.29      20.1  T
   9     -9.7601991 -0.378390E-08  0.592E-04    1.29      75.6  T
  10     -9.7601991 -0.394014E-10  0.219E-04    1.29     203.9  T
     SCC iter.                  ...        0 min,  0.001 sec
     gradient                   ...        0 min,  0.001 sec
 * total energy  :    -9.5478465 Eh     change       -0.3553526E-02 Eh
   gradient norm :     0.0718737 Eh/α   predicted    -0.6645131E-02 (  87.00%)
   displ. norm   :     0.2643188 α      lambda       -0.7237338E-02
   maximum displ.:     0.1877107 α      in ANC's #1, #5, #4, ...

........................................................................
.............................. CYCLE    7 ..............................
........................................................................
   1     -9.7442505 -0.974425E+01  0.137E+00    1.05       0.0  T
   2     -9.7386649  0.558565E-02  0.118E+00    1.14       1.0  T
   3     -9.7280594  0.106054E-01  0.132E+00    1.01       1.0  T
   4     -9.7446139 -0.165544E-01  0.569E-01    1.12       1.0  T
   5     -9.7467265 -0.211261E-02  0.153E-01    1.09       1.0  T
   6     -9.7468334 -0.106916E-03  0.532E-02    1.10       1.0  T
   7     -9.7468297  0.370574E-05  0.264E-02    1.10       1.7  T
   8     -9.7468351 -0.541626E-05  0.557E-03    1.10       8.0  T
   9     -9.7468352 -0.874101E-07  0.931E-04    1.10      48.0  T
  10     -9.7468352 -0.719528E-09  0.188E-04    1.10     237.7  T
     SCC iter.                  ...        0 min,  0.001 sec
     gradient                   ...        0 min,  0.001 sec
 * total energy  :    -9.5465040 Eh     change        0.1342561E-02 Eh
   gradient norm :     0.1086692 Eh/α   predicted    -0.3871485E-02 (-388.37%)
   displ. norm   :     0.1745274 α      lambda       -0.8942781E-02
   maximum displ.:     0.1353086 α      in ANC's #3, #4, #1, ...

........................................................................
.............................. CYCLE    8 ..............................
........................................................................
   1     -9.7335367 -0.973354E+01  0.913E-01    1.30       0.0  T
   2     -9.7291298  0.440699E-02  0.884E-01    1.23       1.0  T
   3     -9.7268567  0.227300E-02  0.858E-01    1.31       1.0  T
   4     -9.7339953 -0.713853E-02  0.343E-01    1.27       1.0  T
   5     -9.7345776 -0.582282E-03  0.100E-01    1.27       1.0  T
   6     -9.7346346 -0.570856E-04  0.270E-02    1.27       1.7  T
   7     -9.7346365 -0.189507E-05  0.601E-03    1.27       7.4  T
   8     -9.7346368 -0.255583E-06  0.257E-03    1.27      17.4  T
   9     -9.7346368 -0.368672E-07  0.441E-04    1.27     101.3  T
  10     -9.7346368 -0.531418E-09  0.122E-04    1.27     367.7  T
     SCC iter.                  ...        0 min,  0.001 sec
     gradient                   ...        0 min,  0.001 sec
 * total energy  :    -9.5495564 Eh     change       -0.3052442E-02 Eh
   gradient norm :     0.0295266 Eh/α   predicted    -0.4607590E-02 (  50.95%)
   displ. norm   :     0.2089949 α      lambda       -0.3200742E-02
   maximum displ.:     0.1580815 α      in ANC's #2, #3, #5, ...

........................................................................
.............................. CYCLE    9 ..............................
........................................................................
   1     -9.7506302 -0.975063E+01  0.857E-01    1.08       0.0  T
   2     -9.7468200  0.381019E-02  0.816E-01    1.13       1.0  T
   3     -9.7459098  0.910238E-03  0.785E-01    1.05       1.0  T
   4     -9.7504530 -0.454328E-02  0.421E-01    1.09       1.0  T
   5     -9.7516242 -0.117118E-02  0.405E-02    1.09       1.1  T
   6     -9.7516270 -0.277926E-05  0.226E-02    1.09       2.0  T
   7     -9.7516275 -0.504202E-06  0.691E-03    1.09       6.5  T
   8     -9.7516279 -0.415287E-06  0.172E-03    1.09      26.1  T
   9     -9.7516279 -0.156433E-07  0.121E-04    1.09     370.2  T
  10     -9.7516279 -0.672706E-11  0.608E-05    1.09     735.1  T
     SCC iter.                  ...        0 min,  0.001 sec
     gradient                   ...        0 min,  0.001 sec
 * total energy  :    -9.5495218 Eh     change        0.3459734E-04 Eh
   gradient norm :     0.0313190 Eh/α   predicted    -0.1670274E-02 (*******%)
   displ. norm   :     0.1024693 α      lambda       -0.1956471E-02
   maximum displ.:     0.0565810 α      in ANC's #3, #5, #1, ...

........................................................................
.............................. CYCLE   10 ..............................
........................................................................
   1     -9.7451004 -0.974510E+01  0.415E-01    1.12       0.0  T
   2     -9.7446430  0.457407E-03  0.343E-01    1.10       1.0  T
   3     -9.7438487  0.794255E-03  0.399E-01    1.14       1.0  T
   4     -9.7449166 -0.106787E-02  0.223E-01    1.11       1.0  T
   5     -9.7453370 -0.420435E-03  0.325E-02    1.12       1.4  T
   6     -9.7453411 -0.405918E-05  0.901E-03    1.12       5.0  T
   7     -9.7453410  0.291091E-07  0.217E-03    1.12      20.6  T
   8     -9.7453411 -0.379973E-07  0.332E-04    1.12     134.7  T
   9     -9.7453411 -0.880540E-10  0.677E-05    1.12     660.8  T
     SCC iter.                  ...        0 min,  0.001 sec
     gradient                   ...        0 min,  0.001 sec
 * total energy  :    -9.5504845 Eh     change       -0.9627141E-03 Eh
   gradient norm :     0.0101330 Eh/α   predicted    -0.9885085E-03 (   2.68%)
   displ. norm   :     0.0659977 α      lambda       -0.2546015E-03
   maximum displ.:     0.0567160 α      in ANC's #2, #1, #6, ...

........................................................................
.............................. CYCLE   11 ..............................
........................................................................
   1     -9.7450244 -0.974502E+01  0.224E-01    1.13       0.0  T
   2     -9.7450249 -0.434347E-06  0.131E-01    1.13       1.0  T
   3     -9.7449075  0.117392E-03  0.103E-01    1.13       1.0  T
   4     -9.7450187 -0.111186E-03  0.323E-02    1.13       1.4  T
   5     -9.7450276 -0.891451E-05  0.957E-03    1.13       4.7  T
   6     -9.7450276 -0.592206E-07  0.393E-03    1.13      11.4  T
   7     -9.7450277 -0.897181E-07  0.578E-04    1.13      77.3  T
   8     -9.7450277 -0.242926E-09  0.181E-04    1.13     247.4  T
     SCC iter.                  ...        0 min,  0.001 sec
     gradient                   ...        0 min,  0.001 sec
 * total energy  :    -9.5505404 Eh     change       -0.5588199E-04 Eh
   gradient norm :     0.0066939 Eh/α   predicted    -0.1278547E-03 ( 128.79%)
   displ. norm   :     0.0558274 α      lambda       -0.1388135E-03
   maximum displ.:     0.0475072 α      in ANC's #2, #1, #3, ...

........................................................................
.............................. CYCLE   12 ..............................
........................................................................
   1     -9.7453545 -0.974535E+01  0.108E-01    1.10       0.0  T
   2     -9.7453290  0.255312E-04  0.822E-02    1.10       1.0  T
   3     -9.7451641  0.164834E-03  0.134E-01    1.10       1.0  T
   4     -9.7453527 -0.188587E-03  0.314E-02    1.10       1.4  T
   5     -9.7453598 -0.709731E-05  0.533E-03    1.10       8.4  T
   6     -9.7453599 -0.226850E-07  0.313E-03    1.10      14.3  T
   7     -9.7453599 -0.215045E-07  0.374E-04    1.10     119.5  T
   8     -9.7453599  0.141879E-09  0.233E-04    1.10     192.2  T
     SCC iter.                  ...        0 min,  0.001 sec
     gradient                   ...        0 min,  0.001 sec
 * total energy  :    -9.5506334 Eh     change       -0.9302140E-04 Eh
   gradient norm :     0.0045274 Eh/α   predicted    -0.6962264E-04 ( -25.15%)
   displ. norm   :     0.0677707 α      lambda       -0.1139710E-03
   maximum displ.:     0.0579526 α      in ANC's #2, #1, #3, ...

........................................................................
.............................. CYCLE   13 ..............................
........................................................................
   1     -9.7479054 -0.974791E+01  0.176E-01    1.05       0.0  T
   2     -9.7478841  0.212934E-04  0.116E-01    1.06       1.0  T
   3     -9.7474276  0.456549E-03  0.210E-01    1.05       1.0  T
   4     -9.7478767 -0.449118E-03  0.669E-02    1.06       1.0  T
   5     -9.7479157 -0.390004E-04  0.978E-03    1.06       4.6  T
   6     -9.7479159 -0.164594E-06  0.525E-03    1.06       8.5  T
   7     -9.7479159 -0.271913E-07  0.668E-04    1.06      66.9  T
   8     -9.7479159  0.162022E-10  0.416E-04    1.06     107.5  T
     SCC iter.                  ...        0 min,  0.001 sec
     gradient                   ...        0 min,  0.001 sec
 * total energy  :    -9.5507043 Eh     change       -0.7083822E-04 Eh
   gradient norm :     0.0061994 Eh/α   predicted    -0.5724703E-04 ( -19.19%)
   displ. norm   :     0.1151216 α      lambda       -0.1119242E-03
   maximum displ.:     0.0766949 α      in ANC's #2, #1, #3, ...

........................................................................
.............................. CYCLE   14 ..............................
........................................................................
   1     -9.7470498 -0.974705E+01  0.324E-01    0.98       0.0  T
   2     -9.7468730  0.176795E-03  0.237E-01    0.99       1.0  T
   3     -9.7446361  0.223690E-02  0.462E-01    0.97       1.0  T
   4     -9.7470699 -0.243377E-02  0.384E-02    0.99       1.2  T
   5     -9.7470768 -0.693265E-05  0.113E-02    0.99       4.0  T
   6     -9.7470769 -0.984705E-07  0.684E-03    0.99       6.5  T
   7     -9.7470771 -0.174382E-06  0.988E-04    0.99      45.3  T
   8     -9.7470771 -0.520544E-08  0.430E-04    0.99     104.1  T
     SCC iter.                  ...        0 min,  0.001 sec
     gradient                   ...        0 min,  0.001 sec
 * total energy  :    -9.5507681 Eh     change       -0.6383931E-04 Eh
   gradient norm :     0.0059796 Eh/α   predicted    -0.5670388E-04 ( -11.18%)
   displ. norm   :     0.0554563 α      lambda       -0.8945182E-04
   maximum displ.:     0.0284122 α      in ANC's #2, #3, #6, ...

........................................................................
.............................. CYCLE   15 ..............................
........................................................................
   1     -9.7484918 -0.974849E+01  0.178E-01    0.95       0.0  T
   2     -9.7484848  0.707766E-05  0.110E-01    0.96       1.0  T
   3     -9.7480220  0.462742E-03  0.203E-01    0.95       1.0  T
   4     -9.7484814 -0.459427E-03  0.427E-02    0.96       1.0  T
   5     -9.7484962 -0.147130E-04  0.722E-03    0.96       6.2  T
   6     -9.7484962 -0.470881E-07  0.168E-03    0.96      26.5  T
   7     -9.7484962 -0.448747E-08  0.646E-04    0.96      69.2  T
   8     -9.7484962  0.195802E-09  0.355E-04    0.96     125.9  T
     SCC iter.                  ...        0 min,  0.001 sec
     gradient                   ...        0 min,  0.001 sec
 * total energy  :    -9.5508319 Eh     change       -0.6379414E-04 Eh
   gradient norm :     0.0036502 Eh/α   predicted    -0.4486555E-04 ( -29.67%)
   displ. norm   :     0.0541396 α      lambda       -0.5445298E-04
   maximum displ.:     0.0299546 α      in ANC's #2, #3, #4, ...

........................................................................
.............................. CYCLE   16 ..............................
........................................................................
   1     -9.7491892 -0.974919E+01  0.177E-01    0.93       0.0  T
   2     -9.7491875  0.169988E-05  0.106E-01    0.93       1.0  T
   3     -9.7489144  0.273095E-03  0.154E-01    0.92       1.0  T
   4     -9.7491879 -0.273421E-03  0.244E-02    0.93       1.8  T
   5     -9.7491921 -0.425302E-05  0.801E-03    0.93       5.6  T
   6     -9.7491922 -0.112551E-06  0.430E-03    0.93      10.4  T
   7     -9.7491923 -0.715485E-07  0.592E-04    0.93      75.6  T
   8     -9.7491923 -0.125018E-09  0.246E-04    0.93     181.8  T
     SCC iter.                  ...        0 min,  0.001 sec
     gradient                   ...        0 min,  0.001 sec
 * total energy  :    -9.5508700 Eh     change       -0.3804882E-04 Eh
   gradient norm :     0.0022135 Eh/α   predicted    -0.2730543E-04 ( -28.24%)
   displ. norm   :     0.0412785 α      lambda       -0.3089097E-04
   maximum displ.:     0.0234246 α      in ANC's #2, #3, #7, ...

........................................................................
.............................. CYCLE   17 ..............................
........................................................................
   1     -9.7494086 -0.974941E+01  0.144E-01    0.92       0.0  T
   2     -9.7494098 -0.116874E-05  0.827E-02    0.92       1.0  T
   3     -9.7494100 -0.212618E-06  0.990E-03    0.92       4.5  T
   4     -9.7494099  0.131911E-06  0.798E-03    0.92       5.6  T
   5     -9.7494090  0.925442E-06  0.109E-02    0.92       4.1  T
   6     -9.7494102 -0.125178E-05  0.248E-03    0.92      18.0  T
   7     -9.7494103 -0.364811E-07  0.433E-04    0.92     103.2  T
   8     -9.7494103 -0.998579E-10  0.113E-04    0.92     395.8  T
     SCC iter.                  ...        0 min,  0.001 sec
     gradient                   ...        0 min,  0.001 sec
 * total energy  :    -9.5508908 Eh     change       -0.2079974E-04 Eh
   gradient norm :     0.0012076 Eh/α   predicted    -0.1547100E-04 ( -25.62%)
   displ. norm   :     0.0266972 α      lambda       -0.1077814E-04
   maximum displ.:     0.0131239 α      in ANC's #7, #2, #3, ...

........................................................................
.............................. CYCLE   18 ..............................
........................................................................
   1     -9.7492156 -0.974922E+01  0.112E-01    0.92       0.0  T
   2     -9.7492109  0.466688E-05  0.662E-02    0.92       1.0  T
   3     -9.7489598  0.251063E-03  0.152E-01    0.92       1.0  T
   4     -9.7492163 -0.256492E-03  0.106E-02    0.92       4.2  T
   5     -9.7492170 -0.647989E-06  0.509E-03    0.92       8.8  T
   6     -9.7492170 -0.603723E-07  0.269E-03    0.92      16.6  T
   7     -9.7492171 -0.264161E-07  0.310E-04    0.92     144.3  T
   8     -9.7492171 -0.237945E-09  0.103E-04    0.92     434.6  T
     SCC iter.                  ...        0 min,  0.001 sec
     gradient                   ...        0 min,  0.001 sec
 * total energy  :    -9.5508976 Eh     change       -0.6787746E-05 Eh
   gradient norm :     0.0006569 Eh/α   predicted    -0.5389945E-05 ( -20.59%)
   displ. norm   :     0.0112879 α      lambda       -0.1141307E-05
   maximum displ.:     0.0062587 α      in ANC's #2, #4, #3, ...

........................................................................
.............................. CYCLE   19 ..............................
........................................................................
   1     -9.7490138 -0.974901E+01  0.395E-02    0.92       0.0  T
   2     -9.7490138 -0.728359E-07  0.229E-02    0.92       2.0  T
   3     -9.7490129  0.884320E-06  0.906E-03    0.92       4.9  T
   4     -9.7490136 -0.646519E-06  0.552E-03    0.92       8.1  T
   5     -9.7490139 -0.277712E-06  0.159E-03    0.92      28.1  T
   6     -9.7490139 -0.349104E-08  0.770E-04    0.92      58.1  T
   7     -9.7490139 -0.259807E-08  0.138E-04    0.92     324.7  T
     SCC iter.                  ...        0 min,  0.001 sec
     gradient                   ...        0 min,  0.001 sec
 * total energy  :    -9.5508985 Eh     change       -0.9781537E-06 Eh
   gradient norm :     0.0003441 Eh/α   predicted    -0.5698880E-06 ( -41.74%)
   displ. norm   :     0.0070740 α      lambda       -0.1688979E-06
   maximum displ.:     0.0048944 α      in ANC's #2, #3, #1, ...

   *** GEOMETRY OPTIMIZATION CONVERGED AFTER 19 ITERATIONS ***

------------------------------------------------------------------------
 total energy gain   :        -0.1542450 Eh      -96.7902 kcal/mol
 total RMSD          :         0.6601819 a0        0.3494 Å
 total power (kW/mol):       -21.3142150 (step)-7083.5042 (real)
------------------------------------------------------------------------

 ANCopt (total)                0 d,  0 h,  0 min,  0.057 sec
 optimizer setup                ...        0 min,  0.000 sec (  0.141%)
 model hessian                  ...        0 min,  0.000 sec (  0.215%)
 ANC generation                 ...        0 min,  0.000 sec (  0.112%)
 coordinate transformation      ...        0 min,  0.000 sec (  0.085%)
 single point calculation       ...        0 min,  0.055 sec ( 96.548%)
 optimization log               ...        0 min,  0.001 sec (  0.915%)
 hessian update                 ...        0 min,  0.000 sec (  0.085%)
 rational function              ...        0 min,  0.000 sec (  0.858%)

================
 final structure:
================
5
 xtb: 6.2.2 (9d81278992624c895f80dd42a50cac0aa55982e2)
C         2.07723468371024   -0.57632050765784    0.86895258042917
N         1.03165638716331   -0.38253173545628    0.28715131589864
C        -0.09206027398949    0.21301346750265    0.24262541346218
C        -1.21642910344498    0.49716746687224   -0.26948984200887
H        -1.80040169343908    0.24867130873923   -1.12923946778112

 Bond Distances (Angstroems)
 ---------------------------
C1-N2=1.2121         N2-C1=1.2121         N2-C3=1.2726         C3-N2=1.2726         C3-C4=1.2678         C4-C3=1.2678         
C4-H5=1.0686         H5-C4=1.0686         
 C  H  Rav=1.0686 sigma=0.0000  Rmin=1.0686  Rmax=1.0686     1
 C  C  Rav=1.2678 sigma=0.0000  Rmin=1.2678  Rmax=1.2678     1
 N  C  Rav=1.2423 sigma=0.0302  Rmin=1.2121  Rmax=1.2726     2

 selected bond angles (degree)
 --------------------
C3-N2-C1=148.57                C4-C3-N2=154.45                H5-C4-C3=139.25                

 selected dihedral angles (degree)
 ---------------------------------
C4-C3-N2-C1=180.00            H5-C4-C3-N2=  0.00            
           -------------------------------------------------
          |                Final Singlepoint                |
           -------------------------------------------------

          ...................................................
          :                      SETUP                      :
          :.................................................:
          :  # basis functions                  17          :
          :  # atomic orbitals                  17          :
          :  # shells                            9          :
          :  # electrons                        18          :
          :  max. iterations                   250          :
          :  Hamiltonian                  GFN2-xTB          :
          :  restarted?                      false          :
          :  GBSA solvation                  false          :
          :  PC potential                    false          :
          :  electronic temp.          300.0000000     K    :
          :  accuracy                    1.0000000          :
          :  -> integral cutoff          0.2500000E+02      :
          :  -> integral neglect         0.1000000E-07      :
          :  -> SCF convergence          0.1000000E-05 Eh   :
          :  -> wf. convergence          0.1000000E-03 e    :
          :  Broyden damping             0.4000000          :
          ...................................................

 iter      E             dE          RMSdq      gap      omega  full diag
   1     -9.7490139 -0.974901E+01  0.343E-05    0.92       0.0  T
   2     -9.7490139  0.191527E-10  0.521E-05    0.92     858.1  T
   3     -9.7490139 -0.209148E-10  0.187E-05    0.92    2397.5  T

   *** convergence criteria satisfied after 3 iterations ***

         #    Occupation            Energy/Eh            Energy/eV
      -------------------------------------------------------------
         1        2.0000           -0.6865195             -18.6811
       ...           ...                  ...                  ...
         4        2.0000           -0.5481660             -14.9164
         5        2.0000           -0.5413223             -14.7301
         6        2.0000           -0.5245646             -14.2741
         7        2.0000           -0.4526012             -12.3159
         8        2.0000           -0.4324487             -11.7675
         9        1.0000           -0.4121814             -11.2160
        10        1.0000           -0.3153958              -8.5824 (HOMO)
        11                         -0.2815694              -7.6619 (LUMO)
        12                         -0.2015880              -5.4855
        13                         -0.1457133              -3.9651
        14                          0.1377636               3.7487
        15                          0.2540229               6.9123
       ...                                ...                  ...
        17                          1.0672902              29.0424
      -------------------------------------------------------------
                  HL-Gap            0.0338264 Eh            0.9205 eV
             Fermi-level           -0.3603988 Eh           -9.8070 eV

 transition dipole moment (au) for excitation:           9          10
     X       Y       Z   
   1.3801  -0.4907   0.4157  total (au/Debye):    1.523   3.870
 dE (eV)             :    2.634
 oscillator strength :  0.21156E+00

 SCC (total)                   0 d,  0 h,  0 min,  0.003 sec
 SCC setup                      ...        0 min,  0.000 sec (  1.705%)
 Dispersion                     ...        0 min,  0.000 sec (  0.347%)
 integral evaluation            ...        0 min,  0.001 sec ( 31.047%)
 zeroth order Hamiltonian       ...        0 min,  0.000 sec (  0.407%)
 iterations                     ...        0 min,  0.000 sec ( 11.830%)
 molecular gradient             ...        0 min,  0.001 sec ( 30.723%)
 printout                       ...        0 min,  0.001 sec ( 23.646%)

         :::::::::::::::::::::::::::::::::::::::::::::::::::::
         ::                     SUMMARY                     ::
         :::::::::::::::::::::::::::::::::::::::::::::::::::::
         :: total energy              -9.550898530329 Eh    ::
         :: gradient norm              0.000349751091 Eh/a0 ::
         :: HOMO-LUMO gap              0.920463268551 eV    ::
         ::.................................................::
         :: SCC energy                -9.749013878688 Eh    ::
         :: -> isotropic ES           -0.006762538413 Eh    ::
         :: -> anisotropic ES         -0.000424976321 Eh    ::
         :: -> anisotropic XC          0.015248900018 Eh    ::
         :: -> dispersion             -0.002102044143 Eh    ::
         :: repulsion energy           0.198115649110 Eh    ::
         :: add. restraining           0.000000000000 Eh    ::
         :::::::::::::::::::::::::::::::::::::::::::::::::::::

           ------------------------------------------------- 
          |                Numerical Hessian                |
           ------------------------------------------------- 
step length          :   0.00500
SCC accuracy         :   0.30000
Hessian scale factor :   1.00000
frozen atoms in %    :   0.00000    0
RMS gradient         :   0.00035
estimated CPU  time      0.00 min
estimated wall time      0.00 min

writing file <hessian>.

 projected vibrational frequencies (cm-1)
eigval :       -0.00    -0.00    -0.00    -0.00     0.00     0.00
eigval :      153.17   201.31   436.97   476.83   649.42  1053.53
eigval :     1725.27  1912.89  3105.49
           -------------------------------------------------
          |                Property Printout                |
           -------------------------------------------------

    * Orbital Energies and Occupations

         #    Occupation            Energy/Eh            Energy/eV
      -------------------------------------------------------------
         1        2.0000           -0.6865197             -18.6812
         2        2.0000           -0.6551476             -17.8275
         3        2.0000           -0.6150067             -16.7352
         4        2.0000           -0.5481660             -14.9164
         5        2.0000           -0.5413224             -14.7301
         6        2.0000           -0.5245645             -14.2741
         7        2.0000           -0.4526014             -12.3159
         8        2.0000           -0.4324486             -11.7675
         9        1.0000           -0.4121814             -11.2160
        10        1.0000           -0.3153958              -8.5824 (HOMO)
        11                         -0.2815694              -7.6619 (LUMO)
        12                         -0.2015880              -5.4855
        13                         -0.1457133              -3.9651
        14                          0.1377637               3.7487
        15                          0.2540230               6.9123
        16                          0.7400742              20.1384
        17                          1.0672902              29.0424
      -------------------------------------------------------------
                  HL-Gap            0.0338264 Eh            0.9205 eV
             Fermi-level           -0.3603988 Eh           -9.8070 eV

     #   Z        covCN         q      C6AA      α(0)
     1   6 C      0.929    -0.117    39.284    10.499
     2   7 N      1.823     0.054    20.948     6.782
     3   6 C      1.910     0.055    29.713     8.803
     4   6 C      1.909    -0.086    33.462     9.342
     5   1 H      0.927     0.094     1.845     2.124

 Mol. C6AA /au·bohr⁶  :        548.337697
 Mol. C8AA /au·bohr⁸  :      14459.162593
 Mol. α(0) /au        :         37.550543


Wiberg/Mayer (AO) data.
largest (>0.10) Wiberg bond orders for each atom
          total WBO             WBO to atom ...
     1  C   2.379        N    2 2.016    C    4 0.264
     2  N   3.512        C    1 2.016    C    3 1.445
     3  C   3.575        C    4 2.026    N    2 1.445
     4  C   3.249        C    3 2.026    H    5 0.924    C    1 0.264
     5  H   0.949        C    4 0.924
Molecule has the following symmetry elements: (sigma) 
It seems to be the Cs point group

MOs/occ written to file <molden.input>


molecular dipole:
                 x           y           z       tot (Debye)
 q only:       -0.483       0.073      -0.293
   full:       -0.703       0.059      -0.498       2.195
molecular quadrupole (traceless):
                xx          xy          yy          xz          yz          zz
 q only:       -0.944       0.683       0.268      -0.183       0.218       0.676
  q+dip:       -0.879       0.857      -0.178       0.519       0.390       1.056
   full:       -2.550       1.630       1.061      -1.057       0.483       1.489

           -------------------------------------------------
          |                Geometry Summary                 |
           -------------------------------------------------

      molecular mass/u    :       51.0468517
   center of mass at/Å    :        0.4284031      -0.0685584       0.2546262
  moments of inertia/u·Å² :        0.1696524E+01   0.9596293E+02   0.9765945E+02
rotational constants/cm⁻¹ :        0.9936573E+01   0.1756682E+00   0.1726165E+00

 * 3 selected distances

     #   Z        #   Z                                     value/Å
     1   6 C      2   7 N                                 1.2121389 (min)
     2   7 N      3   6 C                                 1.2725548 (max)
     3   6 C      4   6 C                                 1.2677582

 * 2 distinct bonds (by element types)

   Z      Z             #   av. dist./Å        max./Å        min./Å
   6 C    6 C           1     1.2677582     1.2677582     1.2677582
   6 C    7 N           2     1.2423469     1.2725548     1.2121389

           -------------------------------------------------
          |               Frequency Printout                |
           -------------------------------------------------
 projected vibrational frequencies (cm-1)
eigval :       -0.00    -0.00    -0.00    -0.00     0.00     0.00
eigval :      153.17   201.31   436.97   476.83   649.42  1053.53
eigval :     1725.27  1912.89  3105.49
 reduced masses (amu)
   1: 10.35   2:  9.74   3: 11.61   4: 12.49   5: 12.26   6: 12.11   7:  9.58   8: 11.76
   9: 12.75  10:  6.76  11:  4.67  12: 12.34  13: 12.42  14: 12.27  15:  2.03
 IR intensities (amu)
   1:  0.04   2:  0.12   3:  0.08   4:  0.08   5:  0.08   6:  0.02   7:  0.17   8:  0.21
   9:  0.07  10:  0.30  11:  0.40  12:  0.13  13:  1.38  14:  1.51  15:  0.06
 Raman intensities (amu)
   1:  0.00   2:  0.00   3:  0.00   4:  0.00   5:  0.00   6:  0.00   7:  0.00   8:  0.00
   9:  0.00  10:  0.00  11:  0.00  12:  0.00  13:  0.00  14:  0.00  15:  0.00
 output can be read by thermo (or use thermo option).
 writing <g98.out> molden fake output.
 recommended (thermochemical) frequency scaling factor: 1.0
           -------------------------------------------------
          |             Thermodynamic Functions             |
           -------------------------------------------------

cs  symmetry found (for desy threshold:  0.10E+00) used in thermo

          ...................................................
          :                      SETUP                      :
          :.................................................:
          :  # frequencies                           9      :
          :  # imaginary freq.                       0      :
          :  linear?                             false      :
          :  only rotor calc.                    false      :
          :  symmetry                               cs      :
          :  rotational number                       1      :
          :  scaling factor                  1.0000000      :
          :  rotor cutoff                   50.0000000 cm⁻¹ :
          :  imag. cutoff                  -20.0000000 cm⁻¹ :
          :.................................................:

    mode    ω/cm⁻¹     T·S(HO)/kcal·mol⁻¹    T·S(FR)/kcal·mol⁻¹   T·S(vib)
   ------------------------------------------------------------------------
       1    153.17    -0.00000 ( 98.88%)     0.00944 (  1.12%)     0.00011
       2    201.31    -0.00000 ( 99.62%)     0.01215 (  0.38%)     0.00005
   ------------------------------------------------------------------------

   temp. (K)  partition function   enthalpy   heat capacity  entropy
                                   cal/mol     cal/K/mol   cal/K/mol   J/K/mol
 298.15  VIB   4.10                 1180.273      7.730      6.760
         ROT  0.963E+04              888.752      2.981     21.210
         INT  0.395E+05             2069.025     10.711     27.970
         TR   0.353E+27             1481.254      4.968     37.697
         TOT                        3550.2790    15.6788    65.6667   274.7497

   temp. (K)  partition function   enthalpy   heat capacity  entropy
                                   cal/mol     cal/K/mol   cal/K/mol   J/K/mol
 120.00  VIB   1.32                  151.542      3.320      1.820
         ROT  0.246E+04              357.707      2.981     18.497
         INT  0.324E+04              509.249      6.301     20.317
         TR   0.901E+26              596.178      4.968     33.177
         TOT                        1105.4268    11.2690    53.4940   223.8190

   temp. (K)  partition function   enthalpy   heat capacity  entropy
                                   cal/mol     cal/K/mol   cal/K/mol   J/K/mol
 100.00  VIB   1.19                   91.904      2.638      1.279
         ROT  0.187E+04              298.089      2.981     17.953
         INT  0.223E+04              389.993      5.619     19.233
         TR   0.685E+26              496.815      4.968     32.272
         TOT                         886.8082    10.5868    51.5044   215.4942

   temp. (K)  partition function   enthalpy   heat capacity  entropy
                                   cal/mol     cal/K/mol   cal/K/mol   J/K/mol
  80.00  VIB   1.10                   46.344      1.908      0.774
         ROT  0.134E+04              238.471      2.981     17.288
         INT  0.147E+04              284.816      4.889     18.062
         TR   0.490E+26              397.452      4.968     31.164
         TOT                         682.2677     9.8569    49.2262   205.9626

   temp. (K)  partition function   enthalpy   heat capacity  entropy
                                   cal/mol     cal/K/mol   cal/K/mol   J/K/mol
  60.00  VIB   1.03                   16.110      1.103      0.344
         ROT   870.                  178.853      2.981     16.431
         INT   899.                  194.963      4.084     16.775
         TR   0.319E+26              298.089      4.968     29.735
         TOT                         493.0524     9.0518    46.5099   194.5976

   temp. (K)  partition function   enthalpy   heat capacity  entropy
                                   cal/mol     cal/K/mol   cal/K/mol   J/K/mol
  40.00  VIB   1.00                    2.193      0.321      0.069
         ROT   473.                  119.236      2.981     15.222
         INT   476.                  121.429      3.302     15.291
         TR   0.173E+26              198.726      4.968     27.722
         TOT                         320.1546     8.2701    43.0127   179.9653

   temp. (K)  partition function   enthalpy   heat capacity  entropy
                                   cal/mol     cal/K/mol   cal/K/mol   J/K/mol
  20.00  VIB   1.00                    0.007      0.004     -0.005
         ROT   167.                   59.618      2.981     13.156
         INT   167.                   59.625      2.985     13.151
         TR   0.613E+25               99.363      4.968     24.280
         TOT                         158.9883     7.9532    37.4307   156.6102

   temp. (K)  partition function   enthalpy   heat capacity  entropy
                                   cal/mol     cal/K/mol   cal/K/mol   J/K/mol
  10.00  VIB   1.00                    0.000      0.000     -0.016
         ROT   59.2                   29.809      2.981     11.090
         INT   59.2                   29.809      2.981     11.074
         TR   0.217E+25               49.681      4.968     20.838
         TOT                          79.4904     7.9490    31.9116   133.5181

       T/K    H(0)-H(T)+PV         H(T)/Eh          T*S/Eh         G(T)/Eh
   ------------------------------------------------------------------------
    298.15    0.565773E-02    0.277899E-01    0.312004E-01   -0.341052E-02
    120.00    0.176161E-02    0.238937E-01    0.102298E-01    0.136640E-01
    100.00    0.141322E-02    0.235454E-01    0.820774E-02    0.153376E-01
     80.00    0.108726E-02    0.232194E-01    0.627576E-02    0.169436E-01
     60.00    0.785729E-03    0.229179E-01    0.444710E-02    0.184708E-01
     40.00    0.510199E-03    0.226423E-01    0.274181E-02    0.199005E-01
     20.00    0.253364E-03    0.223855E-01    0.119299E-02    0.211925E-01
     10.00    0.126676E-03    0.222588E-01    0.508543E-03    0.217503E-01 (used)
   ------------------------------------------------------------------------

         :::::::::::::::::::::::::::::::::::::::::::::::::::::
         ::                  THERMODYNAMIC                  ::
         :::::::::::::::::::::::::::::::::::::::::::::::::::::
         :: total free energy          -9.529148260617 Eh   ::
         ::.................................................::
         :: total energy               -9.550898530240 Eh   ::
         :: zero point energy           0.022132137037 Eh   ::
         :: G(RRHO) w/o ZPVE           -0.000381867414 Eh   ::
         :: G(RRHO) contrib.            0.021750269623 Eh   ::
         :::::::::::::::::::::::::::::::::::::::::::::::::::::

optimized geometry written to: xtbopt.xyz


           -------------------------------------------------
          | TOTAL ENERGY               -9.550898530240 Eh   |
          | TOTAL ENTHALPY             -9.528639717187 Eh   |
          | TOTAL FREE ENERGY          -9.529148260617 Eh   |
          | GRADIENT NORM               0.000350327084 Eh/α |
          | HOMO-LUMO GAP               0.920462960726 eV   |
           -------------------------------------------------

------------------------------------------------------------------------
 * finished run on 2020/05/12 at 11:44:55.169     
------------------------------------------------------------------------
 total:
 * wall-time:     0 d,  0 h,  0 min,  0.160 sec
 *  cpu-time:     0 d,  0 h,  0 min,  0.160 sec
 * ratio c/w:     0.999 speedup
 SCF:
 * wall-time:     0 d,  0 h,  0 min,  0.006 sec
 *  cpu-time:     0 d,  0 h,  0 min,  0.006 sec
 * ratio c/w:     0.997 speedup
 ANC optimizer:
 * wall-time:     0 d,  0 h,  0 min,  0.061 sec
 *  cpu-time:     0 d,  0 h,  0 min,  0.061 sec
 * ratio c/w:     0.999 speedup
 numerical hessian:
 * wall-time:     0 d,  0 h,  0 min,  0.077 sec
 *  cpu-time:     0 d,  0 h,  0 min,  0.077 sec
 * ratio c/w:     1.000 speedup

