$hessian                                                                        
        0.5822037710  -0.1205672745   0.2991445486  -0.4769491748   0.0702023698
       -0.2843313038  -0.0926397772   0.0484250314  -0.0058540650  -0.0159077424
        0.0103734197   0.0039552148   0.0032929235  -0.0084335463  -0.0129143947
       -0.1205672745   0.0364961888  -0.0563301440   0.0832487890  -0.0266294949
        0.0441916170   0.0448388927  -0.0149848521   0.0135824247  -0.0102172801
        0.0039036135  -0.0003484371   0.0026968730   0.0012145447  -0.0010954605
        0.2991445486  -0.0563301440   0.1721358649  -0.2650400508   0.0333834940
       -0.1808374729  -0.0105997297   0.0164257921   0.0165372503  -0.0273862976
        0.0169462058   0.0011481365   0.0038815295  -0.0104253479  -0.0089837789
       -0.4769491748   0.0832487890  -0.2650400508   0.8329417361  -0.2465438025
        0.3101084822  -0.3075575058   0.1358302581  -0.0426209225  -0.0455865723
        0.0183831015  -0.0207026366  -0.0028484832   0.0090816539   0.0182551277
        0.0702023698  -0.0266294949   0.0333834940  -0.2465438025   0.1281689769
       -0.0406807112   0.1361755384  -0.0869272472   0.0008453036   0.0472193924
       -0.0113685674   0.0048017835  -0.0070534981  -0.0032436674   0.0016501301
       -0.2843313038   0.0441916170  -0.1808374729   0.3101084822  -0.0406807112
        0.2158729073  -0.0429429377   0.0007892320  -0.0462839104   0.0231712743
       -0.0194823056   0.0017520477  -0.0060055150   0.0151821678   0.0094964282
       -0.0926397772   0.0448388927  -0.0105997297  -0.3075575058   0.1361755384
       -0.0429429377   0.9093275897  -0.2946317908   0.2958896837  -0.4909344308
        0.1026500023  -0.2364874299  -0.0181958759   0.0109673574  -0.0058595864
        0.0484250314  -0.0149848521   0.0164257921   0.1358302581  -0.0869272472
        0.0007892320  -0.2946317908   0.1413555700  -0.0718620772   0.1078416389
       -0.0438005580   0.0590940890   0.0025348625   0.0043570873  -0.0044470358
       -0.0058540650   0.0135824247   0.0165372503  -0.0426209225   0.0008453036
       -0.0462839104   0.2958896837  -0.0718620772   0.1645867612  -0.2287491474
        0.0548661890  -0.1319064504  -0.0186655488   0.0025681600  -0.0029336507
       -0.0159077424  -0.0102172801  -0.0273862976  -0.0455865723   0.0472193924
        0.0231712743  -0.4909344308   0.1078416389  -0.2287491474   0.6536092065
       -0.0967741059   0.3826277332  -0.1011804609  -0.0480696453  -0.1496635625
        0.0103734197   0.0039036135   0.0169462058   0.0183831015  -0.0113685674
       -0.0194823056   0.1026500023  -0.0438005580   0.0548661890  -0.0967741059
        0.0753720170   0.0002035472  -0.0346324177  -0.0241065052  -0.0525336365
        0.0039552148  -0.0003484371   0.0011481365  -0.0207026366   0.0048017835
        0.0017520477  -0.2364874299   0.0590940890  -0.1319064504   0.3826277332
        0.0002035472   0.3408422306  -0.1293928816  -0.0637509826  -0.2118359643
        0.0032929235   0.0026968730   0.0038815295  -0.0028484832  -0.0070534981
       -0.0060055150  -0.0181958759   0.0025348625  -0.0186655488  -0.1011804609
       -0.0346324177  -0.1293928816   0.1189318966   0.0364541803   0.1501824159
       -0.0084335463   0.0012145447  -0.0104253479   0.0090816539  -0.0032436674
        0.0151821678   0.0109673574   0.0043570873   0.0025681600  -0.0480696453
       -0.0241065052  -0.0637509826   0.0364541803   0.0217785405   0.0564260028
       -0.0129143947  -0.0010954605  -0.0089837789   0.0182551277   0.0016501301
        0.0094964282  -0.0058595864  -0.0044470358  -0.0029336507  -0.1496635625
       -0.0525336365  -0.2118359643   0.1501824159   0.0564260028   0.2142569657
