[Molden Format]
[Title]
[Atoms] AU
C      1     6  0.39254043140292E+01 -0.10891055058412E+01  0.16420704385043E+01
N      2     7  0.19495459547214E+01 -0.72288940764825E+00  0.54263174948247E+00
C      3     6 -0.17396498052160E+00  0.40253878819863E+00  0.45849544448050E+00
C      4     6 -0.22987145006205E+01  0.93952141051749E+00 -0.50925556322875E+00
H      5     1 -0.34022707876085E+01  0.46993471477333E+00 -0.21339420692385E+01
[GTO]
           1 0
 s           4   1.0000000000000000     
   51.049363095579913      -0.16312063210127389     
   8.7911227406887544      -0.19911024581000730     
  0.70640422258929825       0.31882047753655751     
  0.26922813413411617       0.12706504184240380     
 p           4   1.0000000000000000     
   5.8263656140800002       0.73716451545209605     
   1.5106896018720002       0.68216371614850257     
  0.53256483288000001       0.35783053929253711     
  0.21202323690600003        5.3983030275847881E-002

           2 0
 s           4   1.0000000000000000     
   63.594024466941008      -0.19234388414721629     
   10.951417231523665      -0.23478107924953728     
  0.87999310257376984       0.37593753901700888     
  0.33538715296521110       0.14982889271862770     
 p           4   1.0000000000000000     
   7.2965040481495080       0.97658666315667420     
   1.8918745450712575       0.90372226730345739     
  0.66694432110824120       0.47404958461536373     
  0.26552202674130870        7.1516067715011844E-002

           3 0
 s           4   1.0000000000000000     
   51.049363095579913      -0.16312063210127389     
   8.7911227406887544      -0.19911024581000730     
  0.70640422258929825       0.31882047753655751     
  0.26922813413411617       0.12706504184240380     
 p           4   1.0000000000000000     
   5.8263656140800002       0.73716451545209605     
   1.5106896018720002       0.68216371614850257     
  0.53256483288000001       0.35783053929253711     
  0.21202323690600003        5.3983030275847881E-002

           4 0
 s           4   1.0000000000000000     
   51.049363095579913      -0.16312063210127389     
   8.7911227406887544      -0.19911024581000730     
  0.70640422258929825       0.31882047753655751     
  0.26922813413411617       0.12706504184240380     
 p           4   1.0000000000000000     
   5.8263656140800002       0.73716451545209605     
   1.5106896018720002       0.68216371614850257     
  0.53256483288000001       0.35783053929253711     
  0.21202323690600003        5.3983030275847881E-002

           5 0
 s           3   1.0000000000000000     
   3.3702276975336001       0.27359110588908298     
  0.61389118221497996       0.26460540653860526     
  0.16614291148415999        8.2465947534082318E-002

[MO]
Sym=     1a
Ene=  -0.68651965619512489     
Spin= Alpha
Occup=     2.00000000
           1  0.28414890956112954     
           2 -0.14276501976773953     
           3   4.0374530620465233E-002
           4  -5.8574856417527792E-002
           5  0.59624774182340445     
           6  -2.4537250173497338E-002
           7   6.4867651582462188E-002
           8   7.6800486600534068E-002
           9  0.30271260606724093     
          10  0.14916444378004484     
          11  -7.4001414514184863E-002
          12   1.3486288976579327E-002
          13   5.4480750381893435E-002
          14   5.3209175043893324E-002
          15  -1.8478259119158836E-002
          16   1.6689215063182411E-002
          17   6.4453361649206859E-003
Sym=     2a
Ene=  -0.65514758489184766     
Spin= Alpha
Occup=     2.00000000
           1  0.32324295007992587     
           2  -8.2171227916099446E-002
           3   1.1277164987647756E-002
           4  -5.1649783613425766E-002
           5   8.6281406611564138E-002
           6  0.30999338762902717     
           7  -9.7048079226258036E-002
           8  0.11312344004149662     
           9 -0.45125364162194104     
          10   7.7371922490956757E-002
          11   9.8180868016485377E-003
          12   7.9289465422780925E-002
          13 -0.32635288438039695     
          14 -0.14320522143486145     
          15   4.6799107537119758E-002
          16  -4.9319408611912516E-002
          17  -6.6098626081611919E-002
Sym=     3a
Ene=  -0.61500667566674538     
Spin= Alpha
Occup=     2.00000000
           1 -0.33747581062096293     
           2   3.8401339980737241E-002
           3   8.2994339782538305E-003
           4   4.4488241912102003E-002
           5   9.7562496214818578E-002
           6 -0.33529219539036909     
           7  0.12858154962714446     
           8  -8.6935652033560518E-002
           9  -2.2767836515210811E-002
          10  0.33815904670363162     
          11 -0.13262082706243733     
          12   8.3289218694234710E-002
          13 -0.44973690228544727     
          14  -5.5578058606754500E-002
          15   1.7056806248255903E-002
          16  -2.0808544745504410E-002
          17 -0.15209270871651775     
Sym=     4a
Ene=  -0.54816600672544258     
Spin= Alpha
Occup=     2.00000000
           1 -0.13350230111079972     
           2   1.2532719635199368E-002
           3 -0.12348634039036281     
           4 -0.17468631822692102     
           5  0.24238395574656313     
           6  -1.6277535324199077E-002
           7 -0.28254770516147937     
           8 -0.43720230418767769     
           9 -0.20532336271793400     
          10   6.5568964976765898E-002
          11 -0.21729473678049172     
          12 -0.27108315865155103     
          13  0.10026286210803291     
          14 -0.14614731988872229     
          15  -8.4504843198066587E-002
          16 -0.24863354661106551     
          17  0.24564083855623892     
Sym=     5a
Ene=  -0.54132242500962591     
Spin= Alpha
Occup=     2.00000000
           1  -9.1397051544869158E-006
           2  0.12742826911170521     
           3  0.22900172177649739     
           4 -0.15273939006806353     
           5   2.0192593119004946E-005
           6  0.28678162959044412     
           7  0.51538040372480054     
           8 -0.34374819839904908     
           9  -1.6974723946974143E-005
          10  0.16963147058407402     
          11  0.30484972704530561     
          12 -0.20332497566941962     
          13  -3.5589816201323495E-007
          14   6.9299683744879007E-002
          15  0.12452692594757329     
          16  -8.3051370815632797E-002
          17  -7.1843894791238648E-006
Sym=     6a
Ene=  -0.52456448895103069     
Spin= Alpha
Occup=     2.00000000
           1   4.2974009321395661E-002
           2   5.1000865897749964E-002
           3 -0.14326148608873560     
           4 -0.17223866849458491     
           5   6.7232626374204491E-002
           6  0.10663886484349233     
           7 -0.28661408726382070     
           8 -0.34074441072024469     
           9  0.10459207127958482     
          10 -0.17454467908985277     
          11  -2.8678258761812526E-003
          12 -0.14991081316818530     
          13 -0.20097456628691654     
          14  0.31948126895338902     
          15  -1.2737458167651892E-002
          16  0.24746407724298972     
          17 -0.40839581325127672     
Sym=     7a
Ene=  -0.45260135735190948     
Spin= Alpha
Occup=     2.00000000
           1 -0.62470087827313114     
           2 -0.42560786115168336     
           3   4.1583389778726790E-002
           4 -0.29274912973922740     
           5  0.21207985330283541     
           6  0.14932132024944431     
           7  -7.8405597860638498E-002
           8   7.0261961349500860E-003
           9  -6.3415798556435282E-002
          10  -7.2727073709720938E-002
          11  0.19581108566612385     
          12  0.23294011002835421     
          13  0.15349621125070437     
          14 -0.14856647669515557     
          15  0.21768622674704446     
          16  0.20245877960386782     
          17  -8.2695830829543401E-003
Sym=     8a
Ene=  -0.43244863091552055     
Spin= Alpha
Occup=     1.99997669
           1  -3.4011374289662246E-006
           2  0.16323423016642258     
           3  0.29336532168436807     
           4 -0.19564865084683511     
           5   9.0608768522420105E-007
           6  0.13532687665279250     
           7  0.24319998310202276     
           8 -0.16219048643931902     
           9   1.9709726068704397E-005
          10 -0.20261312100038434     
          11 -0.36411172406615117     
          12  0.24282967999302085     
          13  -3.3084046336711544E-005
          14 -0.26096682677065186     
          15 -0.46900928586690194     
          16  0.31277980485355095     
          17   7.2019299557213518E-006
Sym=     9a
Ene=  -0.41218137499666319     
Spin= Alpha
Occup=     1.00002331
           1 -0.29608657458662685     
           2 -0.39898182504180218     
           3  0.26377138403177514     
           4   6.2640715797089283E-002
           5  -5.2679210284014621E-002
           6  0.15522443448611811     
           7   9.4444372312835992E-002
           8  0.27113873623019563     
           9  -8.9989768212375768E-002
          10 -0.12732635719901056     
          11 -0.15536386262911797     
          12 -0.33920999198998858     
          13 -0.16864451901203908     
          14  0.34584734531593608     
          15 -0.37014168270730641     
          16 -0.26645999860577829     
          17  -5.7018865487775072E-002
Sym=    10a
Ene=  -0.31539583500583673     
Spin= Alpha
Occup=     0.99999998
           1  -4.1355245090208138E-002
           2  0.12250932475651363     
           3 -0.42120922287807067     
           4 -0.52933941055726508     
           5 -0.16915679938911679     
           6   8.3128488931342379E-002
           7   6.6606640026963551E-002
           8  0.16922508768700478     
           9  0.25998209888981555     
          10   5.6652022400762746E-002
          11  0.21220469620386243     
          12  0.36542214237750886     
          13 -0.27293175752818488     
          14  0.20642221957061296     
          15 -0.32856807506718633     
          16 -0.32044880425054179     
          17  0.21494579660952026     
Sym=    11a
Ene=  -0.28156944362462394     
Spin= Alpha
Occup=     0.00000002
           1  -2.3336916964858032E-006
           2  0.32499998074780595     
           3  0.58406476882637204     
           4 -0.38954265951700923     
           5  -1.4452102386344184E-005
           6 -0.16001282474055162     
           7 -0.28757645699425899     
           8  0.19180239618520351     
           9   1.2253787873926310E-005
          10 -0.14350234513312277     
          11 -0.25791606636712694     
          12  0.17199902636148265     
          13   2.3029761425197991E-005
          14  0.24327158140479074     
          15  0.43718696163092557     
          16 -0.29158045026892360     
          17  -1.3957315063820802E-005
Sym=    12a
Ene=  -0.20158804371647318     
Spin= Alpha
Occup=     0.00000000
           1  -3.1818401346572801E-003
           2   8.4490327070738919E-002
           3 -0.36693565801220829     
           4 -0.47968330520387237     
           5 -0.14032470390598686     
           6  -8.3590296456785965E-002
           7  0.38110239283217223     
           8  0.50167801815546298     
           9 -0.16001346642587189     
          10   7.6731133666904164E-002
          11 -0.37154840670438005     
          12 -0.49309709206659968     
          13  0.27033063690211301     
          14 -0.15206678980448779     
          15  0.20532011918285775     
          16  0.18103654319273843     
          17 -0.25184796160875889     
Sym=    13a
Ene=  -0.14571334643546044     
Spin= Alpha
Occup=     0.00000000
           1  -4.4733596039588270E-007
           2  0.19599012472042787     
           3  0.35221963783714061     
           4 -0.23489963245207385     
           5   2.6494820315322636E-006
           6 -0.26348836605168519     
           7 -0.47352237105177120     
           8  0.31579890996873156     
           9  -2.5686170948691540E-005
          10  0.32561273019154169     
          11  0.58517469070850181     
          12 -0.39025938568780694     
          13  -1.9309619253645254E-005
          14 -0.23608768204687458     
          15 -0.42429276889938849     
          16  0.28298922016715683     
          17   2.1024061763251313E-005
Sym=    14a
Ene=   0.13776365843650895     
Spin= Alpha
Occup=     0.00000000
           1 -0.19955206187148958     
           2  0.37616225901761774     
           3 -0.12352943359883874     
           4  0.12861856093351215     
           5  0.69049934166234739     
           6 -0.17841983271829967     
           7  0.15746847928161969     
           8   8.7267080857649240E-002
           9 -0.70997223788403507     
          10 -0.11361551308010076     
          11  0.26728467859170441     
          12  0.30601889894400558     
          13  0.68090960547397283     
          14  0.19722027544600687     
          15 -0.33980310922758850     
          16 -0.34490446113677797     
          17 -0.61548090821201928     
Sym=    15a
Ene=   0.25402299353473345     
Spin= Alpha
Occup=     0.00000000
           1 -0.19181928106821619     
           2  0.32758919852136192     
           3 -0.12483613898995237     
           4   8.6138319077718004E-002
           5  0.62897548413008963     
           6 -0.14277140556860596     
           7  0.21676757827249149     
           8  0.20591306923377756     
           9 -0.51155841745607744     
          10 -0.34939160470248920     
          11   9.5772802321233752E-002
          12 -0.14783787181973815     
          13 -0.55542536106809404     
          14  0.45903527089278107     
          15  0.13493712789093731     
          16  0.58523372959102138     
          17  0.90439852065968007     
Sym=    16a
Ene=   0.74007424781481934     
Spin= Alpha
Occup=     0.00000000
           1  0.67536326241685185     
           2 -0.71108318908741264     
           3  0.12577594839978828     
           4 -0.40469682843357208     
           5 -0.58511834159919296     
           6 -0.81353358790031027     
           7  0.16873884714257636     
           8 -0.42576716416693144     
           9 -0.73594254413522220     
          10  0.29040370949215810     
          11   2.9340056482990165E-002
          12  0.28635033198577942     
          13  0.32776847268293108     
          14  0.57316435230151497     
          15 -0.11716007037282566     
          16  0.30255449580179783     
          17  0.23300478960122567     
Sym=    17a
Ene=    1.0672902246169611     
Spin= Alpha
Occup=     0.00000000
           1 -0.39259190785485898     
           2  0.33286663238046593     
           3  -2.0295671994835392E-002
           4  0.24730381893992012     
           5 -0.24812824016781565     
           6  0.83307106277422793     
           7 -0.36977195916095673     
           8  0.14057883749995512     
           9 -0.14923250789914339     
          10   1.1965468398146288     
          11 -0.48943957846744007     
          12  0.26447218973241921     
          13  0.58065300698121014     
          14  0.73058336638175436     
          15  -7.4260704580585063E-002
          16  0.49825414826355635     
          17  0.29024140243949975     
