 Entering Gaussian System, Link 0=g16
 Initial command:
 /applis/site/cecic/gaussian16/B.01/nehalem/g16/l1.exe "/bettik/tinaccil/g16/12213194_C3H7_2X/Gau-133630.inp" -scrdir="/bettik/tinaccil/g16/12213194_C3H7_2X/"
 Entering Link 1 = /applis/site/cecic/gaussian16/B.01/nehalem/g16/l1.exe PID=    133633.
  
 Copyright (c) 1988-2017, Gaussian, Inc.  All Rights Reserved.
  
 This is part of the Gaussian(R) 16 program.  It is based on
 the Gaussian(R) 09 system (copyright 2009, Gaussian, Inc.),
 the Gaussian(R) 03 system (copyright 2003, Gaussian, Inc.),
 the Gaussian(R) 98 system (copyright 1998, Gaussian, Inc.),
 the Gaussian(R) 94 system (copyright 1995, Gaussian, Inc.),
 the Gaussian 92(TM) system (copyright 1992, Gaussian, Inc.),
 the Gaussian 90(TM) system (copyright 1990, Gaussian, Inc.),
 the Gaussian 88(TM) system (copyright 1988, Gaussian, Inc.),
 the Gaussian 86(TM) system (copyright 1986, Carnegie Mellon
 University), and the Gaussian 82(TM) system (copyright 1983,
 Carnegie Mellon University). Gaussian is a federally registered
 trademark of Gaussian, Inc.
  
 This software contains proprietary and confidential information,
 including trade secrets, belonging to Gaussian, Inc.
  
 This software is provided under written license and may be
 used, copied, transmitted, or stored only in accord with that
 written license.
  
 The following legend is applicable only to US Government
 contracts under FAR:
  
                    RESTRICTED RIGHTS LEGEND
  
 Use, reproduction and disclosure by the US Government is
 subject to restrictions as set forth in subparagraphs (a)
 and (c) of the Commercial Computer Software - Restricted
 Rights clause in FAR 52.227-19.
  
 Gaussian, Inc.
 340 Quinnipiac St., Bldg. 40, Wallingford CT 06492
  
  
 ---------------------------------------------------------------
 Warning -- This program may not be used in any manner that
 competes with the business of Gaussian, Inc. or will provide
 assistance to any competitor of Gaussian, Inc.  The licensee
 of this program is prohibited from giving any competitor of
 Gaussian, Inc. access to this program.  By using this program,
 the user acknowledges that Gaussian, Inc. is engaged in the
 business of creating and licensing software in the field of
 computational chemistry and represents and warrants to the
 licensee that it is not a competitor of Gaussian, Inc. and that
 it will not use this program in any manner prohibited above.
 ---------------------------------------------------------------
  

 Cite this work as:
 Gaussian 16, Revision B.01,
 M. J. Frisch, G. W. Trucks, H. B. Schlegel, G. E. Scuseria, 
 M. A. Robb, J. R. Cheeseman, G. Scalmani, V. Barone, 
 G. A. Petersson, H. Nakatsuji, X. Li, M. Caricato, A. V. Marenich, 
 J. Bloino, B. G. Janesko, R. Gomperts, B. Mennucci, H. P. Hratchian, 
 J. V. Ortiz, A. F. Izmaylov, J. L. Sonnenberg, D. Williams-Young, 
 F. Ding, F. Lipparini, F. Egidi, J. Goings, B. Peng, A. Petrone, 
 T. Henderson, D. Ranasinghe, V. G. Zakrzewski, J. Gao, N. Rega, 
 G. Zheng, W. Liang, M. Hada, M. Ehara, K. Toyota, R. Fukuda, 
 J. Hasegawa, M. Ishida, T. Nakajima, Y. Honda, O. Kitao, H. Nakai, 
 T. Vreven, K. Throssell, J. A. Montgomery, Jr., J. E. Peralta, 
 F. Ogliaro, M. J. Bearpark, J. J. Heyd, E. N. Brothers, K. N. Kudin, 
 V. N. Staroverov, T. A. Keith, R. Kobayashi, J. Normand, 
 K. Raghavachari, A. P. Rendell, J. C. Burant, S. S. Iyengar, 
 J. Tomasi, M. Cossi, J. M. Millam, M. Klene, C. Adamo, R. Cammi, 
 J. W. Ochterski, R. L. Martin, K. Morokuma, O. Farkas, 
 J. B. Foresman, and D. J. Fox, Gaussian, Inc., Wallingford CT, 2016.
 
 ******************************************
 Gaussian 16:  ES64L-G16RevB.01 20-Dec-2017
                26-Sep-2020 
 ******************************************
 %nosave
 %nproc=8
 Will use up to    8 processors via shared memory.
 %mem=2gb
 %chk=input
 --------------------------------------------------------
 #P M062X/cc-pvtz nosymm opt(noeigentest) optcyc=120 freq
 --------------------------------------------------------
 1/6=120,11=1,18=20,19=15,26=3,38=1/1,3;
 2/9=110,12=2,15=1,17=6,18=5,40=1/2;
 3/5=16,6=1,11=2,25=1,30=1,71=1,74=-55/1,2,3;
 4//1;
 5/5=2,38=5/2;
 6/7=2,8=2,9=2,10=2,28=1/1;
 7/30=1/1,2,3,16;
 1/6=120,11=1,18=20,19=15,26=3/3(2);
 2/9=110,15=1/2;
 99//99;
 2/9=110,15=1/2;
 3/5=16,6=1,11=2,25=1,30=1,71=1,74=-55/1,2,3;
 4/5=5,16=3,69=1/1;
 5/5=2,38=5/2;
 7/30=1/1,2,3,16;
 1/6=120,11=1,18=20,19=15,26=3/3(-5);
 2/9=110,15=1/2;
 6/7=2,8=2,9=2,10=2,19=2,28=1/1;
 99/9=1/99;
 Leave Link    1 at Sat Sep 26 00:14:26 2020, MaxMem=   268435456 cpu:               0.9 elap:               0.1
 (Enter /applis/site/cecic/gaussian16/B.01/nehalem/g16/l101.exe)
 -----
 Title
 -----
 Symbolic Z-matrix:
 Charge =  0 Multiplicity = 2
 C
 C                    1    B1
 C                    1    B2       2    A2
 H                    2    B3       1    A3       3    D3       0
 H                    2    B4       1    A4       3    D4       0
 H                    3    B5       1    A5       2    D5       0
 H                    3    B6       1    A6       2    D6       0
 H                    3    B7       1    A7       2    D7       0
 H                    1    B8       2    A8       3    D8       0
 H                    1    B9       2    A9       3    D9       0
       Variables:
  B1                    1.52251                  
  B2                    1.52408                  
  A2                  110.82255                  
  B3                    1.11036                  
  A3                  109.92224                  
  D3                  181.18654                  
  B4                    1.11097                  
  A4                  110.55259                  
  D4                   60.81867                  
  B5                    1.11039                  
  A5                  109.58114                  
  D5                  179.60148                  
  B6                    1.11101                  
  A6                  110.37798                  
  D6                  299.22966                  
  B7                    1.11103                  
  A7                  110.25068                  
  D7                   59.95574                  
  B8                    1.11092                  
  A8                  109.00091                  
  D8                  120.15213                  
  B9                    1.11135                  
  A9                  109.45627                  
  D9                  239.07593                  
 
 ITRead=  0  0  0  0  0  0  0  0  0  0
 MicOpt= -1 -1 -1 -1 -1 -1 -1 -1 -1 -1
 NAtoms=     10 NQM=       10 NQMF=       0 NMMI=      0 NMMIF=      0
                NMic=       0 NMicF=      0.
                    Isotopes and Nuclear Properties:
 (Nuclear quadrupole moments (NQMom) in fm**2, nuclear magnetic moments (NMagM)
  in nuclear magnetons)

  Atom         1           2           3           4           5           6           7           8           9          10
 IAtWgt=          12          12          12           1           1           1           1           1           1           1
 AtmWgt=  12.0000000  12.0000000  12.0000000   1.0078250   1.0078250   1.0078250   1.0078250   1.0078250   1.0078250   1.0078250
 NucSpn=           0           0           0           1           1           1           1           1           1           1
 AtZEff=  -0.0000000  -0.0000000  -0.0000000  -0.0000000  -0.0000000  -0.0000000  -0.0000000  -0.0000000  -0.0000000  -0.0000000
 NQMom=    0.0000000   0.0000000   0.0000000   0.0000000   0.0000000   0.0000000   0.0000000   0.0000000   0.0000000   0.0000000
 NMagM=    0.0000000   0.0000000   0.0000000   2.7928460   2.7928460   2.7928460   2.7928460   2.7928460   2.7928460   2.7928460
 AtZNuc=   6.0000000   6.0000000   6.0000000   1.0000000   1.0000000   1.0000000   1.0000000   1.0000000   1.0000000   1.0000000
 Leave Link  101 at Sat Sep 26 00:14:27 2020, MaxMem=   268435456 cpu:               2.4 elap:               0.4
 (Enter /applis/site/cecic/gaussian16/B.01/nehalem/g16/l103.exe)

 GradGradGradGradGradGradGradGradGradGradGradGradGradGradGradGradGradGrad
 Berny optimization.
 Initialization pass.
                           ----------------------------
                           !    Initial Parameters    !
                           ! (Angstroms and Degrees)  !
 --------------------------                            --------------------------
 ! Name  Definition              Value          Derivative Info.                !
 --------------------------------------------------------------------------------
 ! R1    R(1,2)                  1.5225         estimate D2E/DX2                !
 ! R2    R(1,3)                  1.5241         estimate D2E/DX2                !
 ! R3    R(1,9)                  1.1109         estimate D2E/DX2                !
 ! R4    R(1,10)                 1.1113         estimate D2E/DX2                !
 ! R5    R(2,4)                  1.1104         estimate D2E/DX2                !
 ! R6    R(2,5)                  1.111          estimate D2E/DX2                !
 ! R7    R(3,6)                  1.1104         estimate D2E/DX2                !
 ! R8    R(3,7)                  1.111          estimate D2E/DX2                !
 ! R9    R(3,8)                  1.111          estimate D2E/DX2                !
 ! A1    A(2,1,3)              110.8226         estimate D2E/DX2                !
 ! A2    A(2,1,9)              109.0009         estimate D2E/DX2                !
 ! A3    A(2,1,10)             109.4563         estimate D2E/DX2                !
 ! A4    A(3,1,9)              109.1579         estimate D2E/DX2                !
 ! A5    A(3,1,10)             109.5423         estimate D2E/DX2                !
 ! A6    A(9,1,10)             108.8283         estimate D2E/DX2                !
 ! A7    A(1,2,4)              109.9222         estimate D2E/DX2                !
 ! A8    A(1,2,5)              110.5526         estimate D2E/DX2                !
 ! A9    A(4,2,5)              108.991          estimate D2E/DX2                !
 ! A10   A(1,3,6)              109.5811         estimate D2E/DX2                !
 ! A11   A(1,3,7)              110.378          estimate D2E/DX2                !
 ! A12   A(1,3,8)              110.2507         estimate D2E/DX2                !
 ! A13   A(6,3,7)              108.6586         estimate D2E/DX2                !
 ! A14   A(6,3,8)              108.7368         estimate D2E/DX2                !
 ! A15   A(7,3,8)              109.1975         estimate D2E/DX2                !
 ! D1    D(3,1,2,4)           -178.8135         estimate D2E/DX2                !
 ! D2    D(3,1,2,5)             60.8187         estimate D2E/DX2                !
 ! D3    D(9,1,2,4)            -58.6613         estimate D2E/DX2                !
 ! D4    D(9,1,2,5)           -179.0292         estimate D2E/DX2                !
 ! D5    D(10,1,2,4)            60.2625         estimate D2E/DX2                !
 ! D6    D(10,1,2,5)           -60.1054         estimate D2E/DX2                !
 ! D7    D(2,1,3,6)            179.6015         estimate D2E/DX2                !
 ! D8    D(2,1,3,7)            -60.7703         estimate D2E/DX2                !
 ! D9    D(2,1,3,8)             59.9557         estimate D2E/DX2                !
 ! D10   D(9,1,3,6)             59.543          estimate D2E/DX2                !
 ! D11   D(9,1,3,7)            179.1712         estimate D2E/DX2                !
 ! D12   D(9,1,3,8)            -60.1027         estimate D2E/DX2                !
 ! D13   D(10,1,3,6)           -59.5254         estimate D2E/DX2                !
 ! D14   D(10,1,3,7)            60.1028         estimate D2E/DX2                !
 ! D15   D(10,1,3,8)          -179.1711         estimate D2E/DX2                !
 --------------------------------------------------------------------------------
 Trust Radius=3.00D-01 FncErr=1.00D-07 GrdErr=1.00D-06 EigMax=2.50D+02 EigMin=1.00D-04
 Number of steps in this run=    100 maximum allowed number of steps=    100.
 GradGradGradGradGradGradGradGradGradGradGradGradGradGradGradGradGradGrad

 Leave Link  103 at Sat Sep 26 00:14:27 2020, MaxMem=   268435456 cpu:               0.3 elap:               0.1
 (Enter /applis/site/cecic/gaussian16/B.01/nehalem/g16/l202.exe)
                          Input orientation:                          
 ---------------------------------------------------------------------
 Center     Atomic      Atomic             Coordinates (Angstroms)
 Number     Number       Type             X           Y           Z
 ---------------------------------------------------------------------
      1          6           0        0.000000    0.000000    0.000000
      2          6           0        0.000000    0.000000    1.522510
      3          6           0        1.424536    0.000000   -0.541772
      4          1           0       -1.043688   -0.021617    1.900859
      5          1           0        0.507204    0.908229    1.912535
      6          1           0        1.400488   -0.007277   -1.651878
      7          1           0        1.966917    0.908866   -0.203944
      8          1           0        1.969491   -0.902302   -0.190685
      9          1           0       -0.527608   -0.908267   -0.361697
     10          1           0       -0.538511    0.898929   -0.370177
 ---------------------------------------------------------------------
                    Distance matrix (angstroms):
                    1          2          3          4          5
     1  C    0.000000
     2  C    1.522510   0.000000
     3  C    1.524080   2.508100   0.000000
     4  H    2.168644   1.110360   3.472613   0.000000
     5  H    2.177137   1.110970   2.773085   1.808318   0.000000
     6  H    2.165669   3.469605   1.110390   4.312324   3.786971
     7  H    2.176326   2.770460   1.111010   3.789425   2.571040
     8  H    2.174719   2.761898   1.111030   3.772189   3.136852
     9  H    1.110920   2.157210   2.160612   2.484280   3.089113
    10  H    1.111350   2.163407   2.165888   2.502041   2.510852
                    6          7          8          9         10
     6  H    0.000000
     7  H    1.804625   0.000000
     8  H    1.805525   1.811219   0.000000
     9  H    2.488756   3.090229   2.502955   0.000000
    10  H    2.494732   2.510957   3.093013   1.807249   0.000000
 Symmetry turned off by external request.
 Stoichiometry    C3H7(2)
 Framework group  C1[X(C3H7)]
 Deg. of freedom    24
 Full point group                 C1      NOp   1
 Rotational constants (GHZ):          31.7478076           9.0098269           7.8911683
 Leave Link  202 at Sat Sep 26 00:14:27 2020, MaxMem=   268435456 cpu:               0.6 elap:               0.1
 (Enter /applis/site/cecic/gaussian16/B.01/nehalem/g16/l301.exe)
 Standard basis: CC-pVTZ (5D, 7F)
 Ernie: Thresh=  0.10000D-02 Tol=  0.10000D-05 Strict=F.
 Ernie:  9 primitive shells out of 134 were deleted.
   188 basis functions,   275 primitive gaussians,   210 cartesian basis functions
    13 alpha electrons       12 beta electrons
       nuclear repulsion energy        75.4440243333 Hartrees.
 IExCor= 4336 DFT=T Ex+Corr=M062X ExCW=0 ScaHFX=  0.540000
 ScaDFX=  1.000000  1.000000  1.000000  1.000000 ScalE2=  1.000000  1.000000
 IRadAn=      5 IRanWt=     -1 IRanGd=            0 ICorTp=0 IEmpDi=  4
 NAtoms=   10 NActive=   10 NUniq=   10 SFac= 1.00D+00 NAtFMM=   60 NAOKFM=F Big=F
 Integral buffers will be    131072 words long.
 Raffenetti 2 integral format.
 Two-electron integral symmetry is turned off.
 Leave Link  301 at Sat Sep 26 00:14:27 2020, MaxMem=   268435456 cpu:               0.7 elap:               0.2
 (Enter /applis/site/cecic/gaussian16/B.01/nehalem/g16/l302.exe)
 NPDir=0 NMtPBC=     1 NCelOv=     1 NCel=       1 NClECP=     1 NCelD=      1
         NCelK=      1 NCelE2=     1 NClLst=     1 CellRange=     0.0.
 One-electron integrals computed using PRISM.
 NBasis=   188 RedAO= T EigKep=  9.55D-04  NBF=   188
 NBsUse=   188 1.00D-06 EigRej= -1.00D+00 NBFU=   188
 Precomputing XC quadrature grid using
 IXCGrd= 4 IRadAn=           5 IRanWt=          -1 IRanGd=           0 AccXCQ= 0.00D+00.
 Generated NRdTot=       0 NPtTot=           0 NUsed=           0 NTot=          32
 NSgBfM=   210   210   210   210   210 MxSgAt=    10 MxSgA2=    10.
 Leave Link  302 at Sat Sep 26 00:14:28 2020, MaxMem=   268435456 cpu:               2.6 elap:               0.5
 (Enter /applis/site/cecic/gaussian16/B.01/nehalem/g16/l303.exe)
 DipDrv:  MaxL=1.
 Leave Link  303 at Sat Sep 26 00:14:28 2020, MaxMem=   268435456 cpu:               0.8 elap:               0.2
 (Enter /applis/site/cecic/gaussian16/B.01/nehalem/g16/l401.exe)
 ExpMin= 1.03D-01 ExpMax= 8.24D+03 ExpMxC= 2.81D+02 IAcc=3 IRadAn=         5 AccDes= 0.00D+00
 Harris functional with IExCor= 1009 and IRadAn=       5 diagonalized for initial guess.
 HarFok:  IExCor= 1009 AccDes= 0.00D+00 IRadAn=         5 IDoV= 1 UseB2=F ITyADJ=14
 ICtDFT=  3500011 ScaDFX=  1.000000  1.000000  1.000000  1.000000
 FoFCou: FMM=F IPFlag=           0 FMFlag=      100000 FMFlg1=           0
         NFxFlg=           0 DoJE=T BraDBF=F KetDBF=T FulRan=T
         wScrn=  0.000000 ICntrl=       500 IOpCl=  0 I1Cent=   200000004 NGrid=           0
         NMat0=    1 NMatS0=      1 NMatT0=    0 NMatD0=    1 NMtDS0=    0 NMtDT0=    0
 Symmetry not used in FoFCou.
 Harris En= -118.403144038658    
 JPrj=0 DoOrth=F DoCkMO=F.
 Initial guess <Sx>= 0.0000 <Sy>= 0.0000 <Sz>= 0.5000 <S**2>= 0.7500 S= 0.5000
 Leave Link  401 at Sat Sep 26 00:14:29 2020, MaxMem=   268435456 cpu:               6.8 elap:               1.0
 (Enter /applis/site/cecic/gaussian16/B.01/nehalem/g16/l502.exe)
 Two-electron integral symmetry not used.
 UHF open shell SCF:
 Using DIIS extrapolation, IDIIS=  1040.
 NGot=   268435456 LenX=   268344050 LenY=   268299509
 Requested convergence on RMS density matrix=1.00D-08 within 128 cycles.
 Requested convergence on MAX density matrix=1.00D-06.
 Requested convergence on             energy=1.00D-06.
 No special actions if energy rises.
 Fock matrices will be formed incrementally for  20 cycles.
 Integral accuracy reduced to 1.0D-05 until final iterations.

 Cycle   1  Pass 0  IDiag  1:
 FoFJK:  IHMeth= 1 ICntrl=       0 DoSepK=F KAlg= 0 I1Cent=           0 FoldK=F
 IRaf= 990000000 NMat=       1 IRICut=       1 DoRegI=T DoRafI=F ISym2E= 0 IDoP0=0 IntGTp=1.
 FoFCou: FMM=F IPFlag=           0 FMFlag=      100000 FMFlg1=           0
         NFxFlg=           0 DoJE=F BraDBF=F KetDBF=F FulRan=T
         wScrn=  0.000000 ICntrl=         0 IOpCl=  1 I1Cent=           0 NGrid=           0
         NMat0=    1 NMatS0=      1 NMatT0=    0 NMatD0=    1 NMtDS0=    0 NMtDT0=    0
 Symmetry not used in FoFCou.
 E= -118.291187517918    
 DIIS: error= 3.55D-02 at cycle   1 NSaved=   1.
 NSaved= 1 IEnMin= 1 EnMin= -118.291187517918     IErMin= 1 ErrMin= 3.55D-02
 ErrMax= 3.55D-02  0.00D+00 EMaxC= 1.00D-01 BMatC= 5.58D-01 BMatP= 5.58D-01
 IDIUse=3 WtCom= 6.45D-01 WtEn= 3.55D-01
 Coeff-Com:  0.100D+01
 Coeff-En:   0.100D+01
 Coeff:      0.100D+01
 Gap=     0.319 Goal=   None    Shift=    0.000
 Gap=     0.378 Goal=   None    Shift=    0.000
 GapD=    0.319 DampG=1.000 DampE=0.500 DampFc=0.5000 IDamp=-1.
 Damping current iteration by 5.00D-01
 RMSDP=2.36D-03 MaxDP=6.61D-02              OVMax= 1.60D-01

 Cycle   2  Pass 0  IDiag  1:
 RMSU=  1.17D-03    CP:  9.91D-01
 E= -118.361540901512     Delta-E=       -0.070353383594 Rises=F Damp=T
 DIIS: error= 4.85D-03 at cycle   2 NSaved=   2.
 NSaved= 2 IEnMin= 2 EnMin= -118.361540901512     IErMin= 2 ErrMin= 4.85D-03
 ErrMax= 4.85D-03  0.00D+00 EMaxC= 1.00D-01 BMatC= 3.03D-02 BMatP= 5.58D-01
 IDIUse=3 WtCom= 9.52D-01 WtEn= 4.85D-02
 Coeff-Com: -0.876D-01 0.109D+01
 Coeff-En:   0.000D+00 0.100D+01
 Coeff:     -0.833D-01 0.108D+01
 Gap=     0.365 Goal=   None    Shift=    0.000
 Gap=     0.368 Goal=   None    Shift=    0.000
 RMSDP=5.15D-04 MaxDP=2.68D-02 DE=-7.04D-02 OVMax= 7.53D-02

 Cycle   3  Pass 0  IDiag  1:
 RMSU=  5.06D-04    CP:  9.97D-01  1.06D+00
 E= -118.428525705613     Delta-E=       -0.066984804101 Rises=F Damp=F
 DIIS: error= 2.64D-03 at cycle   3 NSaved=   3.
 NSaved= 3 IEnMin= 3 EnMin= -118.428525705613     IErMin= 3 ErrMin= 2.64D-03
 ErrMax= 2.64D-03  0.00D+00 EMaxC= 1.00D-01 BMatC= 2.66D-03 BMatP= 3.03D-02
 IDIUse=3 WtCom= 9.74D-01 WtEn= 2.64D-02
 Coeff-Com: -0.475D-01 0.176D+00 0.872D+00
 Coeff-En:   0.000D+00 0.000D+00 0.100D+01
 Coeff:     -0.463D-01 0.171D+00 0.875D+00
 Gap=     0.366 Goal=   None    Shift=    0.000
 Gap=     0.352 Goal=   None    Shift=    0.000
 RMSDP=1.02D-04 MaxDP=3.57D-03 DE=-6.70D-02 OVMax= 8.60D-03

 Cycle   4  Pass 0  IDiag  1:
 RMSU=  9.47D-05    CP:  9.96D-01  1.09D+00  9.97D-01
 E= -118.429260685865     Delta-E=       -0.000734980252 Rises=F Damp=F
 DIIS: error= 7.65D-04 at cycle   4 NSaved=   4.
 NSaved= 4 IEnMin= 4 EnMin= -118.429260685865     IErMin= 4 ErrMin= 7.65D-04
 ErrMax= 7.65D-04  0.00D+00 EMaxC= 1.00D-01 BMatC= 3.38D-04 BMatP= 2.66D-03
 IDIUse=3 WtCom= 9.92D-01 WtEn= 7.65D-03
 Coeff-Com: -0.699D-02 0.442D-02 0.236D+00 0.767D+00
 Coeff-En:   0.000D+00 0.000D+00 0.000D+00 0.100D+01
 Coeff:     -0.693D-02 0.438D-02 0.234D+00 0.768D+00
 Gap=     0.365 Goal=   None    Shift=    0.000
 Gap=     0.354 Goal=   None    Shift=    0.000
 RMSDP=3.96D-05 MaxDP=2.42D-03 DE=-7.35D-04 OVMax= 5.02D-03

 Cycle   5  Pass 0  IDiag  1:
 RMSU=  3.39D-05    CP:  9.96D-01  1.09D+00  1.04D+00  9.55D-01
 E= -118.429370218542     Delta-E=       -0.000109532677 Rises=F Damp=F
 DIIS: error= 2.34D-04 at cycle   5 NSaved=   5.
 NSaved= 5 IEnMin= 5 EnMin= -118.429370218542     IErMin= 5 ErrMin= 2.34D-04
 ErrMax= 2.34D-04  0.00D+00 EMaxC= 1.00D-01 BMatC= 5.32D-05 BMatP= 3.38D-04
 IDIUse=3 WtCom= 9.98D-01 WtEn= 2.34D-03
 Coeff-Com:  0.413D-02-0.201D-01-0.532D-01 0.162D+00 0.908D+00
 Coeff-En:   0.000D+00 0.000D+00 0.000D+00 0.000D+00 0.100D+01
 Coeff:      0.412D-02-0.201D-01-0.531D-01 0.161D+00 0.908D+00
 Gap=     0.367 Goal=   None    Shift=    0.000
 Gap=     0.353 Goal=   None    Shift=    0.000
 RMSDP=2.39D-05 MaxDP=9.94D-04 DE=-1.10D-04 OVMax= 2.29D-03

 Cycle   6  Pass 0  IDiag  1:
 RMSU=  1.46D-05    CP:  9.96D-01  1.09D+00  1.05D+00  1.12D+00  1.23D+00
 E= -118.429394941938     Delta-E=       -0.000024723396 Rises=F Damp=F
 DIIS: error= 1.34D-04 at cycle   6 NSaved=   6.
 NSaved= 6 IEnMin= 6 EnMin= -118.429394941938     IErMin= 6 ErrMin= 1.34D-04
 ErrMax= 1.34D-04  0.00D+00 EMaxC= 1.00D-01 BMatC= 7.84D-06 BMatP= 5.32D-05
 IDIUse=3 WtCom= 9.99D-01 WtEn= 1.34D-03
 Coeff-Com:  0.174D-02-0.386D-02-0.564D-01-0.129D+00 0.192D+00 0.995D+00
 Coeff-En:   0.000D+00 0.000D+00 0.000D+00 0.000D+00 0.000D+00 0.100D+01
 Coeff:      0.173D-02-0.385D-02-0.563D-01-0.129D+00 0.192D+00 0.995D+00
 Gap=     0.367 Goal=   None    Shift=    0.000
 Gap=     0.354 Goal=   None    Shift=    0.000
 RMSDP=1.08D-05 MaxDP=6.74D-04 DE=-2.47D-05 OVMax= 1.37D-03

 Cycle   7  Pass 0  IDiag  1:
 RMSU=  4.58D-06    CP:  9.96D-01  1.09D+00  1.06D+00  1.17D+00  1.46D+00
                    CP:  1.11D+00
 E= -118.429399557825     Delta-E=       -0.000004615887 Rises=F Damp=F
 DIIS: error= 2.40D-05 at cycle   7 NSaved=   7.
 NSaved= 7 IEnMin= 7 EnMin= -118.429399557825     IErMin= 7 ErrMin= 2.40D-05
 ErrMax= 2.40D-05  0.00D+00 EMaxC= 1.00D-01 BMatC= 3.32D-07 BMatP= 7.84D-06
 IDIUse=1 WtCom= 1.00D+00 WtEn= 0.00D+00
 Coeff-Com: -0.517D-03 0.166D-02 0.498D-02-0.127D-01-0.603D-01 0.132D-01
 Coeff-Com:  0.105D+01
 Coeff:     -0.517D-03 0.166D-02 0.498D-02-0.127D-01-0.603D-01 0.132D-01
 Coeff:      0.105D+01
 Gap=     0.367 Goal=   None    Shift=    0.000
 Gap=     0.353 Goal=   None    Shift=    0.000
 RMSDP=2.55D-06 MaxDP=1.13D-04 DE=-4.62D-06 OVMax= 1.72D-04

 Initial convergence to 1.0D-05 achieved.  Increase integral accuracy.
 Cycle   8  Pass 1  IDiag  1:
 E= -118.429404815053     Delta-E=       -0.000005257228 Rises=F Damp=F
 DIIS: error= 2.21D-05 at cycle   1 NSaved=   1.
 NSaved= 1 IEnMin= 1 EnMin= -118.429404815053     IErMin= 1 ErrMin= 2.21D-05
 ErrMax= 2.21D-05  0.00D+00 EMaxC= 1.00D-01 BMatC= 6.71D-07 BMatP= 6.71D-07
 IDIUse=1 WtCom= 1.00D+00 WtEn= 0.00D+00
 Coeff-Com:  0.100D+01
 Coeff:      0.100D+01
 Gap=     0.367 Goal=   None    Shift=    0.000
 Gap=     0.353 Goal=   None    Shift=    0.000
 RMSDP=2.55D-06 MaxDP=1.13D-04 DE=-5.26D-06 OVMax= 1.14D-04

 Cycle   9  Pass 1  IDiag  1:
 RMSU=  2.83D-06    CP:  1.00D+00
 E= -118.429404926616     Delta-E=       -0.000000111563 Rises=F Damp=F
 DIIS: error= 6.06D-06 at cycle   2 NSaved=   2.
 NSaved= 2 IEnMin= 2 EnMin= -118.429404926616     IErMin= 2 ErrMin= 6.06D-06
 ErrMax= 6.06D-06  0.00D+00 EMaxC= 1.00D-01 BMatC= 2.38D-08 BMatP= 6.71D-07
 IDIUse=1 WtCom= 1.00D+00 WtEn= 0.00D+00
 Coeff-Com: -0.233D-01 0.102D+01
 Coeff:     -0.233D-01 0.102D+01
 Gap=     0.367 Goal=   None    Shift=    0.000
 Gap=     0.353 Goal=   None    Shift=    0.000
 RMSDP=4.94D-07 MaxDP=1.68D-05 DE=-1.12D-07 OVMax= 6.38D-05

 Cycle  10  Pass 1  IDiag  1:
 RMSU=  4.62D-07    CP:  1.00D+00  1.06D+00
 E= -118.429404933592     Delta-E=       -0.000000006976 Rises=F Damp=F
 DIIS: error= 4.91D-06 at cycle   3 NSaved=   3.
 NSaved= 3 IEnMin= 3 EnMin= -118.429404933592     IErMin= 3 ErrMin= 4.91D-06
 ErrMax= 4.91D-06  0.00D+00 EMaxC= 1.00D-01 BMatC= 1.32D-08 BMatP= 2.38D-08
 IDIUse=1 WtCom= 1.00D+00 WtEn= 0.00D+00
 Coeff-Com: -0.409D-01 0.429D+00 0.612D+00
 Coeff:     -0.409D-01 0.429D+00 0.612D+00
 Gap=     0.367 Goal=   None    Shift=    0.000
 Gap=     0.353 Goal=   None    Shift=    0.000
 RMSDP=1.86D-07 MaxDP=6.95D-06 DE=-6.98D-09 OVMax= 2.13D-05

 Cycle  11  Pass 1  IDiag  1:
 RMSU=  1.69D-07    CP:  1.00D+00  1.08D+00  8.82D-01
 E= -118.429404937259     Delta-E=       -0.000000003667 Rises=F Damp=F
 DIIS: error= 1.36D-06 at cycle   4 NSaved=   4.
 NSaved= 4 IEnMin= 4 EnMin= -118.429404937259     IErMin= 4 ErrMin= 1.36D-06
 ErrMax= 1.36D-06  0.00D+00 EMaxC= 1.00D-01 BMatC= 7.89D-10 BMatP= 1.32D-08
 IDIUse=1 WtCom= 1.00D+00 WtEn= 0.00D+00
 Coeff-Com:  0.398D-02-0.162D+00-0.386D-01 0.120D+01
 Coeff:      0.398D-02-0.162D+00-0.386D-01 0.120D+01
 Gap=     0.367 Goal=   None    Shift=    0.000
 Gap=     0.353 Goal=   None    Shift=    0.000
 RMSDP=1.26D-07 MaxDP=4.30D-06 DE=-3.67D-09 OVMax= 2.73D-05

 Cycle  12  Pass 1  IDiag  1:
 RMSU=  6.03D-08    CP:  1.00D+00  1.09D+00  1.05D+00  1.43D+00
 E= -118.429404938020     Delta-E=       -0.000000000761 Rises=F Damp=F
 DIIS: error= 6.21D-07 at cycle   5 NSaved=   5.
 NSaved= 5 IEnMin= 5 EnMin= -118.429404938020     IErMin= 5 ErrMin= 6.21D-07
 ErrMax= 6.21D-07  0.00D+00 EMaxC= 1.00D-01 BMatC= 9.97D-11 BMatP= 7.89D-10
 IDIUse=1 WtCom= 1.00D+00 WtEn= 0.00D+00
 Coeff-Com:  0.618D-02-0.758D-01-0.953D-01 0.698D-01 0.110D+01
 Coeff:      0.618D-02-0.758D-01-0.953D-01 0.698D-01 0.110D+01
 Gap=     0.367 Goal=   None    Shift=    0.000
 Gap=     0.353 Goal=   None    Shift=    0.000
 RMSDP=5.48D-08 MaxDP=1.67D-06 DE=-7.61D-10 OVMax= 1.30D-05

 Cycle  13  Pass 1  IDiag  1:
 RMSU=  2.07D-08    CP:  1.00D+00  1.09D+00  1.11D+00  1.65D+00  1.35D+00
 E= -118.429404938130     Delta-E=       -0.000000000110 Rises=F Damp=F
 DIIS: error= 1.23D-07 at cycle   6 NSaved=   6.
 NSaved= 6 IEnMin= 6 EnMin= -118.429404938130     IErMin= 6 ErrMin= 1.23D-07
 ErrMax= 1.23D-07  0.00D+00 EMaxC= 1.00D-01 BMatC= 5.51D-12 BMatP= 9.97D-11
 IDIUse=1 WtCom= 1.00D+00 WtEn= 0.00D+00
 Coeff-Com: -0.133D-03 0.105D-01-0.258D-03-0.939D-01 0.630D-02 0.108D+01
 Coeff:     -0.133D-03 0.105D-01-0.258D-03-0.939D-01 0.630D-02 0.108D+01
 Gap=     0.367 Goal=   None    Shift=    0.000
 Gap=     0.353 Goal=   None    Shift=    0.000
 RMSDP=1.36D-08 MaxDP=4.34D-07 DE=-1.10D-10 OVMax= 3.43D-06

 Cycle  14  Pass 1  IDiag  1:
 RMSU=  5.87D-09    CP:  1.00D+00  1.09D+00  1.12D+00  1.69D+00  1.50D+00
                    CP:  1.21D+00
 E= -118.429404938137     Delta-E=       -0.000000000006 Rises=F Damp=F
 DIIS: error= 4.21D-08 at cycle   7 NSaved=   7.
 NSaved= 7 IEnMin= 7 EnMin= -118.429404938137     IErMin= 7 ErrMin= 4.21D-08
 ErrMax= 4.21D-08  0.00D+00 EMaxC= 1.00D-01 BMatC= 5.86D-13 BMatP= 5.51D-12
 IDIUse=1 WtCom= 1.00D+00 WtEn= 0.00D+00
 Coeff-Com: -0.377D-03 0.597D-02 0.555D-02-0.151D-01-0.684D-01 0.144D+00
 Coeff-Com:  0.928D+00
 Coeff:     -0.377D-03 0.597D-02 0.555D-02-0.151D-01-0.684D-01 0.144D+00
 Coeff:      0.928D+00
 Gap=     0.367 Goal=   None    Shift=    0.000
 Gap=     0.353 Goal=   None    Shift=    0.000
 RMSDP=3.15D-09 MaxDP=8.76D-08 DE=-6.28D-12 OVMax= 6.85D-07

 SCF Done:  E(UM062X) =  -118.429404938     A.U. after   14 cycles
            NFock= 14  Conv=0.31D-08     -V/T= 2.0081
 <Sx>= 0.0000 <Sy>= 0.0000 <Sz>= 0.5000 <S**2>= 0.7544 S= 0.5022
 <L.S>= 0.000000000000E+00
 KE= 1.174729647195D+02 PE=-4.243130467013D+02 EE= 1.129666527103D+02
 Annihilation of the first spin contaminant:
 S**2 before annihilation     0.7544,   after     0.7500
 Leave Link  502 at Sat Sep 26 00:14:58 2020, MaxMem=   268435456 cpu:             229.0 elap:              28.9
 (Enter /applis/site/cecic/gaussian16/B.01/nehalem/g16/l601.exe)
 Copying SCF densities to generalized density rwf, IOpCl= 1 IROHF=0.

 **********************************************************************

            Population analysis using the SCF Density.

 **********************************************************************

 Alpha  occ. eigenvalues --  -10.55280 -10.54063 -10.52904  -0.88296  -0.76284
 Alpha  occ. eigenvalues --   -0.65638  -0.52746  -0.50875  -0.46293  -0.42184
 Alpha  occ. eigenvalues --   -0.39840  -0.39630  -0.29360
 Alpha virt. eigenvalues --    0.07317   0.11061   0.11285   0.13170   0.14292
 Alpha virt. eigenvalues --    0.16274   0.17227   0.20356   0.25374   0.29350
 Alpha virt. eigenvalues --    0.29888   0.31550   0.32942   0.36152   0.39287
 Alpha virt. eigenvalues --    0.42522   0.43366   0.45907   0.47794   0.49059
 Alpha virt. eigenvalues --    0.49333   0.51337   0.52646   0.53200   0.53462
 Alpha virt. eigenvalues --    0.55464   0.60771   0.63770   0.69669   0.75044
 Alpha virt. eigenvalues --    0.78890   0.81908   0.84568   0.88953   0.92362
 Alpha virt. eigenvalues --    0.95758   0.98851   0.99706   1.03934   1.07532
 Alpha virt. eigenvalues --    1.08467   1.11992   1.12524   1.13978   1.16010
 Alpha virt. eigenvalues --    1.17911   1.19419   1.20409   1.22839   1.26682
 Alpha virt. eigenvalues --    1.29299   1.30475   1.32943   1.35117   1.37199
 Alpha virt. eigenvalues --    1.39442   1.42348   1.43724   1.49158   1.51730
 Alpha virt. eigenvalues --    1.54998   1.56046   1.57988   1.63458   2.17081
 Alpha virt. eigenvalues --    2.24037   2.26109   2.27684   2.31132   2.33197
 Alpha virt. eigenvalues --    2.38733   2.43409   2.46398   2.51338   2.52717
 Alpha virt. eigenvalues --    2.57519   2.60262   2.61645   2.67375   2.68693
 Alpha virt. eigenvalues --    2.73335   2.75367   2.79014   2.82800   2.83900
 Alpha virt. eigenvalues --    2.84225   2.87666   2.91418   2.93145   2.97246
 Alpha virt. eigenvalues --    3.00195   3.02209   3.05873   3.07496   3.09279
 Alpha virt. eigenvalues --    3.09700   3.11791   3.13799   3.15725   3.17556
 Alpha virt. eigenvalues --    3.20460   3.24189   3.26505   3.30030   3.30848
 Alpha virt. eigenvalues --    3.33622   3.36514   3.39813   3.41826   3.44095
 Alpha virt. eigenvalues --    3.45557   3.49554   3.52536   3.61969   3.64370
 Alpha virt. eigenvalues --    3.66761   3.68175   3.73514   3.76534   3.77695
 Alpha virt. eigenvalues --    3.78867   3.80088   3.80905   3.83860   3.87116
 Alpha virt. eigenvalues --    3.89651   3.91965   3.94207   3.95433   3.97295
 Alpha virt. eigenvalues --    3.98849   4.01100   4.03147   4.03899   4.10676
 Alpha virt. eigenvalues --    4.12908   4.18694   4.20567   4.21888   4.23628
 Alpha virt. eigenvalues --    4.27322   4.33207   4.45252   4.45983   4.50034
 Alpha virt. eigenvalues --    4.62589   4.68514   4.71979   4.72616   4.73607
 Alpha virt. eigenvalues --    4.74784   4.78293   4.82846   4.85782   4.91889
 Alpha virt. eigenvalues --    4.99027   5.02868   5.08381   5.16362   5.18565
 Alpha virt. eigenvalues --    5.21015   5.22331   5.25570   5.29513   5.32068
 Alpha virt. eigenvalues --    5.36846   5.41379   5.50066   5.68761   5.75945
 Alpha virt. eigenvalues --    5.78526   5.81898  11.26082  12.30784  13.09894
  Beta  occ. eigenvalues --  -10.54370 -10.54092 -10.52887  -0.87273  -0.74452
  Beta  occ. eigenvalues --   -0.63989  -0.51802  -0.49977  -0.45511  -0.41263
  Beta  occ. eigenvalues --   -0.39319  -0.38970
  Beta virt. eigenvalues --   -0.03624   0.07041   0.10864   0.11379   0.12236
  Beta virt. eigenvalues --    0.14219   0.15979   0.17429   0.19951   0.25171
  Beta virt. eigenvalues --    0.28585   0.29739   0.30968   0.33013   0.35351
  Beta virt. eigenvalues --    0.38310   0.41232   0.44181   0.45599   0.47849
  Beta virt. eigenvalues --    0.48698   0.49412   0.51796   0.52407   0.53363
  Beta virt. eigenvalues --    0.53631   0.55099   0.61429   0.64219   0.69148
  Beta virt. eigenvalues --    0.74754   0.78929   0.81628   0.84334   0.89327
  Beta virt. eigenvalues --    0.91885   0.96034   0.98299   0.99658   1.04055
  Beta virt. eigenvalues --    1.07411   1.08555   1.11689   1.12050   1.13958
  Beta virt. eigenvalues --    1.16079   1.17882   1.19424   1.20273   1.22947
  Beta virt. eigenvalues --    1.26681   1.28948   1.30285   1.33117   1.35193
  Beta virt. eigenvalues --    1.36932   1.39398   1.42431   1.43563   1.49418
  Beta virt. eigenvalues --    1.51953   1.54723   1.56844   1.58049   1.63532
  Beta virt. eigenvalues --    2.19607   2.25301   2.26561   2.28450   2.32099
  Beta virt. eigenvalues --    2.33823   2.39269   2.43680   2.47087   2.52199
  Beta virt. eigenvalues --    2.53823   2.58240   2.62180   2.63138   2.68226
  Beta virt. eigenvalues --    2.70076   2.74846   2.76048   2.79623   2.83754
  Beta virt. eigenvalues --    2.85397   2.85784   2.88906   2.93275   2.94182
  Beta virt. eigenvalues --    2.99022   3.02709   3.03855   3.06364   3.08506
  Beta virt. eigenvalues --    3.10404   3.10646   3.13034   3.14589   3.16605
  Beta virt. eigenvalues --    3.18984   3.21787   3.24980   3.27416   3.30485
  Beta virt. eigenvalues --    3.31687   3.34352   3.37155   3.40108   3.42258
  Beta virt. eigenvalues --    3.44959   3.45879   3.49827   3.52934   3.62363
  Beta virt. eigenvalues --    3.64524   3.67304   3.68619   3.74397   3.76812
  Beta virt. eigenvalues --    3.78313   3.78826   3.80773   3.81504   3.84126
  Beta virt. eigenvalues --    3.87583   3.90263   3.92558   3.94606   3.95771
  Beta virt. eigenvalues --    3.97706   3.99456   4.01703   4.03493   4.04093
  Beta virt. eigenvalues --    4.11570   4.13466   4.19480   4.20874   4.21902
  Beta virt. eigenvalues --    4.24711   4.27627   4.33362   4.45636   4.46955
  Beta virt. eigenvalues --    4.51507   4.63471   4.69836   4.72525   4.73147
  Beta virt. eigenvalues --    4.74756   4.75369   4.79283   4.83780   4.87076
  Beta virt. eigenvalues --    4.93005   5.00111   5.04338   5.09930   5.17172
  Beta virt. eigenvalues --    5.19218   5.21134   5.22845   5.26959   5.30775
  Beta virt. eigenvalues --    5.32385   5.38241   5.42099   5.51851   5.75042
  Beta virt. eigenvalues --    5.76009   5.79889   5.81467  11.26851  12.31152
  Beta virt. eigenvalues --   13.09873
          Condensed to atoms (all electrons):
               1          2          3          4          5          6
     1  C    4.976089   0.314319   0.314336  -0.048239  -0.047878  -0.039997
     2  C    0.314319   5.356966  -0.065195   0.392572   0.385861   0.008548
     3  C    0.314336  -0.065195   4.946310   0.008435  -0.006215   0.401148
     4  H   -0.048239   0.392572   0.008435   0.572477  -0.042716  -0.000549
     5  H   -0.047878   0.385861  -0.006215  -0.042716   0.577295  -0.000183
     6  H   -0.039997   0.008548   0.401148  -0.000549  -0.000183   0.596593
     7  H   -0.039228  -0.006077   0.402721  -0.000064   0.004494  -0.032257
     8  H   -0.039324  -0.000095   0.400047   0.000055  -0.000546  -0.030063
     9  H    0.401315  -0.042075  -0.037518  -0.006632   0.008051  -0.005965
    10  H    0.403938  -0.042791  -0.039430  -0.002712  -0.004832  -0.003709
               7          8          9         10
     1  C   -0.039228  -0.039324   0.401315   0.403938
     2  C   -0.006077  -0.000095  -0.042075  -0.042791
     3  C    0.402721   0.400047  -0.037518  -0.039430
     4  H   -0.000064   0.000055  -0.006632  -0.002712
     5  H    0.004494  -0.000546   0.008051  -0.004832
     6  H   -0.032257  -0.030063  -0.005965  -0.003709
     7  H    0.601321  -0.036424   0.008028  -0.007443
     8  H   -0.036424   0.592305  -0.006746   0.008339
     9  H    0.008028  -0.006746   0.605153  -0.037655
    10  H   -0.007443   0.008339  -0.037655   0.596191
          Atomic-Atomic Spin Densities.
               1          2          3          4          5          6
     1  C   -0.047862  -0.046610   0.010834   0.006941   0.006348  -0.000231
     2  C   -0.046610   1.139443  -0.008057  -0.012734  -0.015339   0.000587
     3  C    0.010834  -0.008057   0.013719  -0.000264   0.001239  -0.003620
     4  H    0.006941  -0.012734  -0.000264  -0.022336   0.004168   0.000003
     5  H    0.006348  -0.015339   0.001239   0.004168  -0.019459  -0.000083
     6  H   -0.000231   0.000587  -0.003620   0.000003  -0.000083   0.004310
     7  H    0.000403  -0.000569   0.000586   0.000078   0.000184  -0.000170
     8  H   -0.000192   0.005156  -0.002895  -0.000190  -0.000495   0.000943
     9  H    0.004330  -0.007935   0.004588   0.001128   0.000283  -0.000340
    10  H    0.013863  -0.025841  -0.005172  -0.003317  -0.003318   0.001662
               7          8          9         10
     1  C    0.000403  -0.000192   0.004330   0.013863
     2  C   -0.000569   0.005156  -0.007935  -0.025841
     3  C    0.000586  -0.002895   0.004588  -0.005172
     4  H    0.000078  -0.000190   0.001128  -0.003317
     5  H    0.000184  -0.000495   0.000283  -0.003318
     6  H   -0.000170   0.000943  -0.000340   0.001662
     7  H    0.001549  -0.000674   0.000146  -0.001223
     8  H   -0.000674  -0.002351  -0.001298   0.001200
     9  H    0.000146  -0.001298   0.019638  -0.009035
    10  H   -0.001223   0.001200  -0.009035   0.083207
 Mulliken charges and spin densities:
               1          2
     1  C   -0.195331  -0.052176
     2  C   -0.302034   1.028101
     3  C   -0.324640   0.010960
     4  H    0.127374  -0.026522
     5  H    0.126667  -0.026472
     6  H    0.106433   0.003062
     7  H    0.104930   0.000310
     8  H    0.112453  -0.000796
     9  H    0.114044   0.011505
    10  H    0.130104   0.052027
 Sum of Mulliken charges =  -0.00000   1.00000
 Mulliken charges and spin densities with hydrogens summed into heavy atoms:
               1          2
     1  C    0.048817   0.011357
     2  C   -0.047993   0.975108
     3  C   -0.000824   0.013536
 Electronic spatial extent (au):  <R**2>=            241.0878
 Charge=             -0.0000 electrons
 Dipole moment (field-independent basis, Debye):
    X=             -0.3224    Y=              0.4402    Z=             -0.4379  Tot=              0.6997
 Quadrupole moment (field-independent basis, Debye-Ang):
   XX=            -21.6205   YY=            -21.0613   ZZ=            -22.6332
   XY=              0.2251   XZ=             -0.3313   YZ=              0.9162
 Traceless Quadrupole moment (field-independent basis, Debye-Ang):
   XX=              0.1511   YY=              0.7104   ZZ=             -0.8615
   XY=              0.2251   XZ=             -0.3313   YZ=              0.9162
 Octapole moment (field-independent basis, Debye-Ang**2):
  XXX=            -33.4006  YYY=             -1.3633  ZZZ=            -22.9515  XYY=             -9.9988
  XXY=             -0.5729  XXZ=             -5.3337  XZZ=            -11.8691  YZZ=              1.2966
  YYZ=             -6.5827  XYZ=              0.6124
 Hexadecapole moment (field-independent basis, Debye-Ang**3):
 XXXX=           -148.2733 YYYY=            -41.9745 ZZZZ=           -167.7747 XXXY=             -1.1974
 XXXZ=             21.3030 YYYX=             -0.7670 YYYZ=             -2.4609 ZZZX=             17.9739
 ZZZY=              0.3014 XXYY=            -29.3655 XXZZ=            -51.4154 YYZZ=            -35.0032
 XXYZ=             -0.9343 YYXZ=              8.5007 ZZXY=              0.7665
 N-N= 7.544402433334D+01 E-N=-4.243130463070D+02  KE= 1.174729647195D+02
                          Isotropic Fermi Contact Couplings
        Atom                 a.u.       MegaHertz       Gauss      10(-4) cm-1
     1  C(13)             -0.01497     -16.82959      -6.00522      -5.61375
     2  C(13)              0.41035     461.30810     164.60620     153.87582
     3  C(13)              0.01266      14.23004       5.07763       4.74663
     4  H(1)              -0.00570     -25.48395      -9.09331      -8.50053
     5  H(1)              -0.00488     -21.82471      -7.78760      -7.27994
     6  H(1)              -0.00028      -1.26007      -0.44962      -0.42031
     7  H(1)              -0.00024      -1.07737      -0.38443      -0.35937
     8  H(1)              -0.00032      -1.45131      -0.51786      -0.48411
     9  H(1)               0.00431      19.27152       6.87656       6.42829
    10  H(1)               0.02350     105.04086      37.48119      35.03786
 --------------------------------------------------------
       Center         ----  Spin Dipole Couplings  ----
                      3XX-RR        3YY-RR        3ZZ-RR
 --------------------------------------------------------
     1   Atom       -0.016746     -0.003498      0.020244
     2   Atom       -0.142198      0.485367     -0.343168
     3   Atom        0.001771     -0.009800      0.008028
     4   Atom        0.061819     -0.024207     -0.037611
     5   Atom       -0.012769      0.049140     -0.036371
     6   Atom       -0.001735     -0.003432      0.005167
     7   Atom        0.002271     -0.002812      0.000541
     8   Atom        0.002804     -0.006061      0.003257
     9   Atom       -0.007090     -0.006359      0.013448
    10   Atom       -0.007171     -0.001445      0.008616
 --------------------------------------------------------
                        XY            XZ            YZ
 --------------------------------------------------------
     1   Atom       -0.008313      0.011352     -0.022258
     2   Atom       -0.579143      0.228183     -0.384518
     3   Atom        0.003706     -0.014080     -0.005406
     4   Atom       -0.008793     -0.036361     -0.017316
     5   Atom        0.030327      0.033048      0.024967
     6   Atom       -0.000318     -0.003724     -0.000405
     7   Atom        0.004610     -0.006666     -0.004442
     8   Atom       -0.004215     -0.009512      0.002623
     9   Atom        0.002862      0.008852      0.009239
    10   Atom       -0.006485      0.004336     -0.007601
 --------------------------------------------------------


 ---------------------------------------------------------------------------------
              Anisotropic Spin Dipole Couplings in Principal Axis System
 ---------------------------------------------------------------------------------

       Atom             a.u.   MegaHertz   Gauss  10(-4) cm-1        Axes

              Baa    -0.0208    -2.788    -0.995    -0.930  0.9229  0.3820 -0.0482
     1 C(13)  Bbb    -0.0165    -2.209    -0.788    -0.737 -0.2916  0.7752  0.5603
              Bcc     0.0372     4.997     1.783     1.667  0.2514 -0.5031  0.8269
 
              Baa    -0.4942   -66.315   -23.663   -22.120 -0.0831  0.3212  0.9434
     2 C(13)  Bbb    -0.4870   -65.356   -23.321   -21.800  0.8707  0.4838 -0.0880
              Bcc     0.9812   131.671    46.983    43.921 -0.4847  0.8141 -0.3199
 
              Baa    -0.0113    -1.520    -0.542    -0.507  0.0749  0.9450  0.3184
     3 C(13)  Bbb    -0.0094    -1.261    -0.450    -0.421  0.7895 -0.2512  0.5600
              Bcc     0.0207     2.781     0.992     0.928 -0.6092 -0.2094  0.7649
 
              Baa    -0.0598   -31.929   -11.393   -10.650  0.2833  0.4748  0.8332
     4 H(1)   Bbb    -0.0139    -7.442    -2.655    -2.482 -0.1190  0.8795 -0.4607
              Bcc     0.0738    39.371    14.049    13.133  0.9516 -0.0314 -0.3057
 
              Baa    -0.0598   -31.886   -11.378   -10.636 -0.5603 -0.0337  0.8276
     5 H(1)   Bbb    -0.0138    -7.357    -2.625    -2.454  0.7136 -0.5270  0.4616
              Bcc     0.0736    39.243    14.003    13.090  0.4206  0.8492  0.3193
 
              Baa    -0.0039    -2.057    -0.734    -0.686  0.6133  0.7362  0.2862
     6 H(1)   Bbb    -0.0029    -1.571    -0.561    -0.524  0.6816 -0.6764  0.2792
              Bcc     0.0068     3.628     1.294     1.210 -0.3991 -0.0238  0.9166
 
              Baa    -0.0059    -3.139    -1.120    -1.047 -0.0010  0.8230  0.5680
     7 H(1)   Bbb    -0.0052    -2.770    -0.988    -0.924  0.7357 -0.3841  0.5579
              Bcc     0.0111     5.908     2.108     1.971  0.6773  0.4184 -0.6051
 
              Baa    -0.0081    -4.306    -1.537    -1.436  0.5491  0.7879  0.2787
     8 H(1)   Bbb    -0.0057    -3.017    -1.076    -1.006  0.4737 -0.5682  0.6729
              Bcc     0.0137     7.323     2.613     2.443  0.6885 -0.2375 -0.6852
 
              Baa    -0.0107    -5.702    -2.035    -1.902  0.7392  0.4923 -0.4596
     9 H(1)   Bbb    -0.0096    -5.099    -1.820    -1.701 -0.5916  0.8007 -0.0939
              Bcc     0.0202    10.801     3.854     3.603  0.3217  0.3413  0.8832
 
              Baa    -0.0114    -6.091    -2.173    -2.032  0.8253  0.5636  0.0352
    10 H(1)   Bbb    -0.0035    -1.867    -0.666    -0.623 -0.4749  0.6589  0.5833
              Bcc     0.0149     7.958     2.840     2.655  0.3056 -0.4981  0.8115
 

 ---------------------------------------------------------------------------------

 No NMR shielding tensors so no spin-rotation constants.
 Leave Link  601 at Sat Sep 26 00:14:59 2020, MaxMem=   268435456 cpu:               1.8 elap:               0.3
 (Enter /applis/site/cecic/gaussian16/B.01/nehalem/g16/l701.exe)
 ... and contract with generalized density number  0.
 Compute integral first derivatives.
 Leave Link  701 at Sat Sep 26 00:14:59 2020, MaxMem=   268435456 cpu:               1.4 elap:               0.3
 (Enter /applis/site/cecic/gaussian16/B.01/nehalem/g16/l702.exe)
 L702 exits ... SP integral derivatives will be done elsewhere.
 Leave Link  702 at Sat Sep 26 00:14:59 2020, MaxMem=   268435456 cpu:               0.4 elap:               0.1
 (Enter /applis/site/cecic/gaussian16/B.01/nehalem/g16/l703.exe)
 Integral derivatives from FoFJK, PRISM(SPDF).
 Compute integral first derivatives, UseDBF=F ICtDFT=           0.
 Calling FoFJK, ICntrl=      2127 FMM=F ISym2X=0 I1Cent= 0 IOpClX= 1 NMat=1 NMatS=1 NMatT=0.
 FoFJK:  IHMeth= 1 ICntrl=    2127 DoSepK=F KAlg= 0 I1Cent=           0 FoldK=F
 IRaf=         0 NMat=       1 IRICut=       1 DoRegI=T DoRafI=F ISym2E= 0 IDoP0=0 IntGTp=1.
 FoFCou: FMM=F IPFlag=           0 FMFlag=      100000 FMFlg1=         800
         NFxFlg=           0 DoJE=F BraDBF=F KetDBF=F FulRan=T
         wScrn=  0.000000 ICntrl=      2127 IOpCl=  1 I1Cent=           0 NGrid=           0
         NMat0=    1 NMatS0=      1 NMatT0=    0 NMatD0=    1 NMtDS0=    0 NMtDT0=    0
 Symmetry not used in FoFCou.
 Leave Link  703 at Sat Sep 26 00:15:04 2020, MaxMem=   268435456 cpu:              36.6 elap:               4.7
 (Enter /applis/site/cecic/gaussian16/B.01/nehalem/g16/l716.exe)
 Dipole        =-1.26828374D-01 1.73204421D-01-1.72297000D-01
 -------------------------------------------------------------------
 Center     Atomic                   Forces (Hartrees/Bohr)
 Number     Number              X              Y              Z
 -------------------------------------------------------------------
      1        6           0.005164755   -0.015727741    0.009388191
      2        6          -0.030269992    0.041634662   -0.016526657
      3        6           0.006379188    0.000348104   -0.009705245
      4        1           0.016119065   -0.010903064    0.004663647
      5        1           0.002963195   -0.018956953    0.002447556
      6        1           0.004312138    0.000231479    0.012511867
      7        1          -0.004569755   -0.011577907   -0.004150976
      8        1          -0.005052992    0.012106313   -0.004568221
      9        1           0.002718425    0.012260908    0.001539591
     10        1           0.002235973   -0.009415800    0.004400249
 -------------------------------------------------------------------
 Cartesian Forces:  Max     0.041634662 RMS     0.012920329
 Leave Link  716 at Sat Sep 26 00:15:04 2020, MaxMem=   268435456 cpu:               0.6 elap:               0.1
 (Enter /applis/site/cecic/gaussian16/B.01/nehalem/g16/l103.exe)

 GradGradGradGradGradGradGradGradGradGradGradGradGradGradGradGradGradGrad
 Berny optimization.
 FormGI is forming the generalized inverse of G from B-inverse, IUseBI=4.
 Internal  Forces:  Max     0.018783952 RMS     0.007789865
 Search for a local minimum.
 Step number   1 out of a maximum of  100
 All quantities printed in internal units (Hartrees-Bohrs-Radians)
 RMS Force = .77899D-02 SwitMx=.10000D-02 MixMth= 1
 Mixed Optimization -- RFO/linear search
 Second derivative matrix not updated -- first step.
 ITU=  0
     Eigenvalues ---    0.00447   0.00468   0.03869   0.04352   0.05515
     Eigenvalues ---    0.05694   0.05800   0.08997   0.12590   0.16000
     Eigenvalues ---    0.16000   0.16000   0.16000   0.16000   0.21990
     Eigenvalues ---    0.29977   0.30126   0.32458   0.32491   0.32493
     Eigenvalues ---    0.32498   0.32503   0.32559   0.32562
 RFO step:  Lambda=-1.71613211D-02 EMin= 4.47415290D-03
 Linear search not attempted -- first point.
 Iteration  1 RMS(Cart)=  0.05793867 RMS(Int)=  0.01093660
 Iteration  2 RMS(Cart)=  0.00805587 RMS(Int)=  0.00801051
 Iteration  3 RMS(Cart)=  0.00008970 RMS(Int)=  0.00801012
 Iteration  4 RMS(Cart)=  0.00000231 RMS(Int)=  0.00801012
 Iteration  5 RMS(Cart)=  0.00000007 RMS(Int)=  0.00801012
 ITry= 1 IFail=0 DXMaxC= 1.46D-01 DCOld= 1.00D+10 DXMaxT= 3.00D-01 DXLimC= 3.00D+00 Rises=F
 Variable       Old X    -DE/DX   Delta X   Delta X   Delta X     New X
                                 (Linear)    (Quad)   (Total)
    R1        2.87713  -0.00942   0.00000  -0.02957  -0.02957   2.84756
    R2        2.88009   0.00310   0.00000   0.00978   0.00978   2.88988
    R3        2.09933  -0.01182   0.00000  -0.03453  -0.03453   2.06480
    R4        2.10015  -0.01017   0.00000  -0.02975  -0.02975   2.07040
    R5        2.09828  -0.01335   0.00000  -0.03895  -0.03895   2.05933
    R6        2.09943  -0.01329   0.00000  -0.03883  -0.03883   2.06060
    R7        2.09833  -0.01260   0.00000  -0.03677  -0.03677   2.06156
    R8        2.09950  -0.01296   0.00000  -0.03790  -0.03790   2.06161
    R9        2.09954  -0.01375   0.00000  -0.04021  -0.04021   2.05933
    A1        1.93422   0.00668   0.00000   0.03526   0.03487   1.96909
    A2        1.90242  -0.00049   0.00000   0.01214   0.01134   1.91376
    A3        1.91037  -0.00412   0.00000  -0.02940  -0.02938   1.88099
    A4        1.90517  -0.00073   0.00000   0.01043   0.00977   1.91493
    A5        1.91187  -0.00015   0.00000   0.00049   0.00081   1.91269
    A6        1.89941  -0.00131   0.00000  -0.02993  -0.02993   1.86948
    A7        1.91851   0.01878   0.00000   0.16263   0.13782   2.05632
    A8        1.92951   0.01419   0.00000   0.13606   0.11111   2.04062
    A9        1.90225  -0.00342   0.00000   0.08963   0.05737   1.95962
   A10        1.91255   0.00557   0.00000   0.03506   0.03482   1.94737
   A11        1.92646   0.00119   0.00000   0.00479   0.00468   1.93114
   A12        1.92424   0.00111   0.00000   0.00453   0.00442   1.92866
   A13        1.89645  -0.00290   0.00000  -0.01305  -0.01327   1.88318
   A14        1.89782  -0.00280   0.00000  -0.01208  -0.01230   1.88551
   A15        1.90586  -0.00231   0.00000  -0.01994  -0.01992   1.88594
    D1       -3.12088   0.00779   0.00000   0.13072   0.13650  -2.98438
    D2        1.06149  -0.00918   0.00000  -0.17312  -0.17948   0.88200
    D3       -1.02383   0.01071   0.00000   0.17321   0.17940  -0.84443
    D4       -3.12465  -0.00626   0.00000  -0.13063  -0.13658   3.02195
    D5        1.05178   0.00641   0.00000   0.12681   0.13306   1.18484
    D6       -1.04904  -0.01056   0.00000  -0.17703  -0.18293  -1.23196
    D7        3.13464   0.00141   0.00000   0.02126   0.02136  -3.12719
    D8       -1.06064   0.00207   0.00000   0.03020   0.03037  -1.03028
    D9        1.04643   0.00067   0.00000   0.01136   0.01140   1.05782
   D10        1.03922  -0.00167   0.00000  -0.02236  -0.02252   1.01670
   D11        3.12713  -0.00101   0.00000  -0.01342  -0.01352   3.11361
   D12       -1.04899  -0.00240   0.00000  -0.03226  -0.03248  -1.08147
   D13       -1.03891   0.00045   0.00000   0.00751   0.00757  -1.03134
   D14        1.04899   0.00111   0.00000   0.01645   0.01657   1.06557
   D15       -3.12713  -0.00029   0.00000  -0.00239  -0.00239  -3.12952
         Item               Value     Threshold  Converged?
 Maximum Force            0.018784     0.000450     NO 
 RMS     Force            0.007790     0.000300     NO 
 Maximum Displacement     0.145663     0.001800     NO 
 RMS     Displacement     0.054524     0.001200     NO 
 Predicted change in Energy=-1.146363D-02
 Lowest energy point so far.  Saving SCF results.
 GradGradGradGradGradGradGradGradGradGradGradGradGradGradGradGradGradGrad

 Leave Link  103 at Sat Sep 26 00:15:04 2020, MaxMem=   268435456 cpu:               0.9 elap:               0.2
 (Enter /applis/site/cecic/gaussian16/B.01/nehalem/g16/l202.exe)
                          Input orientation:                          
 ---------------------------------------------------------------------
 Center     Atomic      Atomic             Coordinates (Angstroms)
 Number     Number       Type             X           Y           Z
 ---------------------------------------------------------------------
      1          6           0       -0.004695    0.009411   -0.015320
      2          6           0       -0.060786    0.077082    1.488977
      3          6           0        1.425877    0.000442   -0.555698
      4          1           0       -1.029284   -0.062745    1.968579
      5          1           0        0.530203    0.856787    1.970444
      6          1           0        1.442687   -0.034232   -1.645948
      7          1           0        1.961784    0.896884   -0.240452
      8          1           0        1.969567   -0.866998   -0.182186
      9          1           0       -0.535740   -0.879892   -0.363181
     10          1           0       -0.540784    0.879824   -0.409464
 ---------------------------------------------------------------------
                    Distance matrix (angstroms):
                    1          2          3          4          5
     1  C    0.000000
     2  C    1.506863   0.000000
     3  C    1.529257   2.529177   0.000000
     4  H    2.234020   1.089751   3.521900   0.000000
     5  H    2.224280   1.090421   2.813708   1.810398   0.000000
     6  H    2.180773   3.478589   1.090931   4.379071   3.834688
     7  H    2.169178   2.784563   1.090956   3.840207   2.634215
     8  H    2.166483   2.793995   1.089753   3.776998   3.110791
     9  H    1.092646   2.138193   2.158702   2.519607   3.098079
    10  H    1.095609   2.116335   2.159272   2.604258   2.609887
                    6          7          8          9         10
     6  H    0.000000
     7  H    1.764046   0.000000
     8  H    1.764569   1.764862   0.000000
     9  H    2.504957   3.067510   2.511869   0.000000
    10  H    2.509691   2.508326   3.066742   1.760332   0.000000
 Symmetry turned off by external request.
 Stoichiometry    C3H7(2)
 Framework group  C1[X(C3H7)]
 Deg. of freedom    24
 Full point group                 C1      NOp   1
 Rotational constants (GHZ):          33.0269665           8.8897638           7.7835733
 Leave Link  202 at Sat Sep 26 00:15:04 2020, MaxMem=   268435456 cpu:               0.4 elap:               0.1
 (Enter /applis/site/cecic/gaussian16/B.01/nehalem/g16/l301.exe)
 Standard basis: CC-pVTZ (5D, 7F)
 Ernie: Thresh=  0.10000D-02 Tol=  0.10000D-05 Strict=F.
 Ernie:  9 primitive shells out of 134 were deleted.
   188 basis functions,   275 primitive gaussians,   210 cartesian basis functions
    13 alpha electrons       12 beta electrons
       nuclear repulsion energy        75.7510424262 Hartrees.
 IExCor= 4336 DFT=T Ex+Corr=M062X ExCW=0 ScaHFX=  0.540000
 ScaDFX=  1.000000  1.000000  1.000000  1.000000 ScalE2=  1.000000  1.000000
 IRadAn=      5 IRanWt=     -1 IRanGd=            0 ICorTp=0 IEmpDi=  4
 NAtoms=   10 NActive=   10 NUniq=   10 SFac= 1.00D+00 NAtFMM=   60 NAOKFM=F Big=F
 Integral buffers will be    131072 words long.
 Raffenetti 2 integral format.
 Two-electron integral symmetry is turned off.
 Leave Link  301 at Sat Sep 26 00:15:04 2020, MaxMem=   268435456 cpu:               0.6 elap:               0.1
 (Enter /applis/site/cecic/gaussian16/B.01/nehalem/g16/l302.exe)
 NPDir=0 NMtPBC=     1 NCelOv=     1 NCel=       1 NClECP=     1 NCelD=      1
         NCelK=      1 NCelE2=     1 NClLst=     1 CellRange=     0.0.
 One-electron integrals computed using PRISM.
 NBasis=   188 RedAO= T EigKep=  9.56D-04  NBF=   188
 NBsUse=   188 1.00D-06 EigRej= -1.00D+00 NBFU=   188
 Precomputing XC quadrature grid using
 IXCGrd= 4 IRadAn=           5 IRanWt=          -1 IRanGd=           0 AccXCQ= 0.00D+00.
 Generated NRdTot=       0 NPtTot=           0 NUsed=           0 NTot=          32
 NSgBfM=   210   210   210   210   210 MxSgAt=    10 MxSgA2=    10.
 Leave Link  302 at Sat Sep 26 00:15:05 2020, MaxMem=   268435456 cpu:               1.5 elap:               0.3
 (Enter /applis/site/cecic/gaussian16/B.01/nehalem/g16/l303.exe)
 DipDrv:  MaxL=1.
 Leave Link  303 at Sat Sep 26 00:15:05 2020, MaxMem=   268435456 cpu:               0.5 elap:               0.1
 (Enter /applis/site/cecic/gaussian16/B.01/nehalem/g16/l401.exe)
 Initial guess from the checkpoint file:  "input.chk"
 B after Tr=    -0.018954    0.027361   -0.032289
         Rot=    0.999957    0.007536    0.005186    0.001324 Ang=   1.06 deg.
 Guess basis will be translated and rotated to current coordinates.
 JPrj=2 DoOrth=T DoCkMO=T.
 Initial guess <Sx>= 0.0000 <Sy>= 0.0000 <Sz>= 0.5000 <S**2>= 0.7545 S= 0.5023
 Generating alternative initial guess.
 ExpMin= 1.03D-01 ExpMax= 8.24D+03 ExpMxC= 2.81D+02 IAcc=3 IRadAn=         5 AccDes= 0.00D+00
 Harris functional with IExCor= 1009 and IRadAn=       5 diagonalized for initial guess.
 HarFok:  IExCor= 1009 AccDes= 0.00D+00 IRadAn=         5 IDoV= 1 UseB2=F ITyADJ=14
 ICtDFT=  3500011 ScaDFX=  1.000000  1.000000  1.000000  1.000000
 FoFCou: FMM=F IPFlag=           0 FMFlag=      100000 FMFlg1=           0
         NFxFlg=           0 DoJE=T BraDBF=F KetDBF=T FulRan=T
         wScrn=  0.000000 ICntrl=       500 IOpCl=  0 I1Cent=   200000004 NGrid=           0
         NMat0=    1 NMatS0=      1 NMatT0=    0 NMatD0=    1 NMtDS0=    0 NMtDT0=    0
 Symmetry not used in FoFCou.
 Harris En= -118.422963134145    
 Leave Link  401 at Sat Sep 26 00:15:06 2020, MaxMem=   268435456 cpu:               6.1 elap:               0.8
 (Enter /applis/site/cecic/gaussian16/B.01/nehalem/g16/l502.exe)
 Two-electron integral symmetry not used.
 UHF open shell SCF:
 Using DIIS extrapolation, IDIIS=  1040.
 NGot=   268435456 LenX=   268344050 LenY=   268299509
 Requested convergence on RMS density matrix=1.00D-08 within 128 cycles.
 Requested convergence on MAX density matrix=1.00D-06.
 Requested convergence on             energy=1.00D-06.
 No special actions if energy rises.
 Fock matrices will be formed incrementally for  20 cycles.
 Integral accuracy reduced to 1.0D-05 until final iterations.

 Cycle   1  Pass 0  IDiag  1:
 FoFJK:  IHMeth= 1 ICntrl=       0 DoSepK=F KAlg= 0 I1Cent=           0 FoldK=F
 IRaf= 990000000 NMat=       1 IRICut=       1 DoRegI=T DoRafI=F ISym2E= 0 IDoP0=0 IntGTp=1.
 FoFCou: FMM=F IPFlag=           0 FMFlag=      100000 FMFlg1=           0
         NFxFlg=           0 DoJE=F BraDBF=F KetDBF=F FulRan=T
         wScrn=  0.000000 ICntrl=         0 IOpCl=  1 I1Cent=           0 NGrid=           0
         NMat0=    1 NMatS0=      1 NMatT0=    0 NMatD0=    1 NMtDS0=    0 NMtDT0=    0
 Symmetry not used in FoFCou.
 E= -118.434202505620    
 DIIS: error= 6.45D-03 at cycle   1 NSaved=   1.
 NSaved= 1 IEnMin= 1 EnMin= -118.434202505620     IErMin= 1 ErrMin= 6.45D-03
 ErrMax= 6.45D-03  0.00D+00 EMaxC= 1.00D-01 BMatC= 2.18D-02 BMatP= 2.18D-02
 IDIUse=3 WtCom= 9.36D-01 WtEn= 6.45D-02
 Coeff-Com:  0.100D+01
 Coeff-En:   0.100D+01
 Coeff:      0.100D+01
 Gap=     0.866 Goal=   None    Shift=    0.000
 Gap=     0.972 Goal=   None    Shift=    0.000
 GapD=    0.866 DampG=2.000 DampE=1.000 DampFc=2.0000 IDamp=-1.
 RMSDP=2.98D-04 MaxDP=9.53D-03              OVMax= 3.52D-02

 Cycle   2  Pass 0  IDiag  1:
 RMSU=  2.98D-04    CP:  9.99D-01
 E= -118.438913173480     Delta-E=       -0.004710667859 Rises=F Damp=F
 DIIS: error= 1.16D-03 at cycle   2 NSaved=   2.
 NSaved= 2 IEnMin= 2 EnMin= -118.438913173480     IErMin= 2 ErrMin= 1.16D-03
 ErrMax= 1.16D-03  0.00D+00 EMaxC= 1.00D-01 BMatC= 7.72D-04 BMatP= 2.18D-02
 IDIUse=3 WtCom= 9.88D-01 WtEn= 1.16D-02
 Coeff-Com: -0.348D-01 0.103D+01
 Coeff-En:   0.000D+00 0.100D+01
 Coeff:     -0.344D-01 0.103D+01
 Gap=     0.348 Goal=   None    Shift=    0.000
 Gap=     0.377 Goal=   None    Shift=    0.000
 RMSDP=1.19D-04 MaxDP=7.17D-03 DE=-4.71D-03 OVMax= 1.37D-02

 Cycle   3  Pass 0  IDiag  1:
 RMSU=  9.78D-05    CP:  9.98D-01  1.23D+00
 E= -118.439280524642     Delta-E=       -0.000367351162 Rises=F Damp=F
 DIIS: error= 8.27D-04 at cycle   3 NSaved=   3.
 NSaved= 3 IEnMin= 3 EnMin= -118.439280524642     IErMin= 3 ErrMin= 8.27D-04
 ErrMax= 8.27D-04  0.00D+00 EMaxC= 1.00D-01 BMatC= 3.03D-04 BMatP= 7.72D-04
 IDIUse=3 WtCom= 9.92D-01 WtEn= 8.27D-03
 Coeff-Com: -0.385D-01 0.351D+00 0.688D+00
 Coeff-En:   0.000D+00 0.000D+00 0.100D+01
 Coeff:     -0.382D-01 0.348D+00 0.690D+00
 Gap=     0.350 Goal=   None    Shift=    0.000
 Gap=     0.378 Goal=   None    Shift=    0.000
 RMSDP=4.33D-05 MaxDP=1.76D-03 DE=-3.67D-04 OVMax= 3.61D-03

 Cycle   4  Pass 0  IDiag  1:
 RMSU=  3.57D-05    CP:  9.98D-01  1.31D+00  9.90D-01
 E= -118.439381902861     Delta-E=       -0.000101378220 Rises=F Damp=F
 DIIS: error= 3.35D-04 at cycle   4 NSaved=   4.
 NSaved= 4 IEnMin= 4 EnMin= -118.439381902861     IErMin= 4 ErrMin= 3.35D-04
 ErrMax= 3.35D-04  0.00D+00 EMaxC= 1.00D-01 BMatC= 3.92D-05 BMatP= 3.03D-04
 IDIUse=3 WtCom= 9.97D-01 WtEn= 3.35D-03
 Coeff-Com:  0.439D-02-0.196D+00 0.589D-01 0.113D+01
 Coeff-En:   0.000D+00 0.000D+00 0.000D+00 0.100D+01
 Coeff:      0.437D-02-0.196D+00 0.587D-01 0.113D+01
 Gap=     0.349 Goal=   None    Shift=    0.000
 Gap=     0.377 Goal=   None    Shift=    0.000
 RMSDP=3.69D-05 MaxDP=2.10D-03 DE=-1.01D-04 OVMax= 3.66D-03

 Cycle   5  Pass 0  IDiag  1:
 RMSU=  1.12D-05    CP:  9.98D-01  1.37D+00  1.26D+00  1.39D+00
 E= -118.439409515182     Delta-E=       -0.000027612321 Rises=F Damp=F
 DIIS: error= 8.44D-05 at cycle   5 NSaved=   5.
 NSaved= 5 IEnMin= 5 EnMin= -118.439409515182     IErMin= 5 ErrMin= 8.44D-05
 ErrMax= 8.44D-05  0.00D+00 EMaxC= 1.00D-01 BMatC= 3.11D-06 BMatP= 3.92D-05
 IDIUse=1 WtCom= 1.00D+00 WtEn= 0.00D+00
 Coeff-Com:  0.469D-02-0.695D-01-0.625D-01 0.184D+00 0.943D+00
 Coeff:      0.469D-02-0.695D-01-0.625D-01 0.184D+00 0.943D+00
 Gap=     0.349 Goal=   None    Shift=    0.000
 Gap=     0.377 Goal=   None    Shift=    0.000
 RMSDP=9.77D-06 MaxDP=5.50D-04 DE=-2.76D-05 OVMax= 9.80D-04

 Initial convergence to 1.0D-05 achieved.  Increase integral accuracy.
 Cycle   6  Pass 1  IDiag  1:
 E= -118.439429254445     Delta-E=       -0.000019739262 Rises=F Damp=F
 DIIS: error= 2.45D-05 at cycle   1 NSaved=   1.
 NSaved= 1 IEnMin= 1 EnMin= -118.439429254445     IErMin= 1 ErrMin= 2.45D-05
 ErrMax= 2.45D-05  0.00D+00 EMaxC= 1.00D-01 BMatC= 1.02D-06 BMatP= 1.02D-06
 IDIUse=1 WtCom= 1.00D+00 WtEn= 0.00D+00
 Coeff-Com:  0.100D+01
 Coeff:      0.100D+01
 Gap=     0.349 Goal=   None    Shift=    0.000
 Gap=     0.377 Goal=   None    Shift=    0.000
 RMSDP=9.77D-06 MaxDP=5.50D-04 DE=-1.97D-05 OVMax= 2.01D-04

 Cycle   7  Pass 1  IDiag  1:
 RMSU=  3.36D-06    CP:  1.00D+00
 E= -118.439429427149     Delta-E=       -0.000000172704 Rises=F Damp=F
 DIIS: error= 1.69D-05 at cycle   2 NSaved=   2.
 NSaved= 2 IEnMin= 2 EnMin= -118.439429427149     IErMin= 2 ErrMin= 1.69D-05
 ErrMax= 1.69D-05  0.00D+00 EMaxC= 1.00D-01 BMatC= 2.93D-07 BMatP= 1.02D-06
 IDIUse=1 WtCom= 1.00D+00 WtEn= 0.00D+00
 Coeff-Com:  0.290D+00 0.710D+00
 Coeff:      0.290D+00 0.710D+00
 Gap=     0.349 Goal=   None    Shift=    0.000
 Gap=     0.377 Goal=   None    Shift=    0.000
 RMSDP=1.05D-06 MaxDP=3.97D-05 DE=-1.73D-07 OVMax= 9.62D-05

 Cycle   8  Pass 1  IDiag  1:
 RMSU=  1.01D-06    CP:  1.00D+00  9.12D-01
 E= -118.439429494054     Delta-E=       -0.000000066905 Rises=F Damp=F
 DIIS: error= 7.39D-06 at cycle   3 NSaved=   3.
 NSaved= 3 IEnMin= 3 EnMin= -118.439429494054     IErMin= 3 ErrMin= 7.39D-06
 ErrMax= 7.39D-06  0.00D+00 EMaxC= 1.00D-01 BMatC= 4.35D-08 BMatP= 2.93D-07
 IDIUse=1 WtCom= 1.00D+00 WtEn= 0.00D+00
 Coeff-Com: -0.621D-01 0.226D+00 0.836D+00
 Coeff:     -0.621D-01 0.226D+00 0.836D+00
 Gap=     0.349 Goal=   None    Shift=    0.000
 Gap=     0.377 Goal=   None    Shift=    0.000
 RMSDP=4.46D-07 MaxDP=1.57D-05 DE=-6.69D-08 OVMax= 4.54D-05

 Cycle   9  Pass 1  IDiag  1:
 RMSU=  3.52D-07    CP:  1.00D+00  9.92D-01  9.58D-01
 E= -118.439429508879     Delta-E=       -0.000000014825 Rises=F Damp=F
 DIIS: error= 2.12D-06 at cycle   4 NSaved=   4.
 NSaved= 4 IEnMin= 4 EnMin= -118.439429508879     IErMin= 4 ErrMin= 2.12D-06
 ErrMax= 2.12D-06  0.00D+00 EMaxC= 1.00D-01 BMatC= 1.80D-09 BMatP= 4.35D-08
 IDIUse=1 WtCom= 1.00D+00 WtEn= 0.00D+00
 Coeff-Com: -0.213D-02-0.867D-01-0.171D+00 0.126D+01
 Coeff:     -0.213D-02-0.867D-01-0.171D+00 0.126D+01
 Gap=     0.349 Goal=   None    Shift=    0.000
 Gap=     0.377 Goal=   None    Shift=    0.000
 RMSDP=2.31D-07 MaxDP=9.76D-06 DE=-1.48D-08 OVMax= 2.66D-05

 Cycle  10  Pass 1  IDiag  1:
 RMSU=  1.06D-07    CP:  1.00D+00  1.01D+00  1.07D+00  1.47D+00
 E= -118.439429510477     Delta-E=       -0.000000001598 Rises=F Damp=F
 DIIS: error= 1.05D-06 at cycle   5 NSaved=   5.
 NSaved= 5 IEnMin= 5 EnMin= -118.439429510477     IErMin= 5 ErrMin= 1.05D-06
 ErrMax= 1.05D-06  0.00D+00 EMaxC= 1.00D-01 BMatC= 5.44D-10 BMatP= 1.80D-09
 IDIUse=1 WtCom= 1.00D+00 WtEn= 0.00D+00
 Coeff-Com:  0.907D-02-0.725D-01-0.206D+00 0.512D+00 0.758D+00
 Coeff:      0.907D-02-0.725D-01-0.206D+00 0.512D+00 0.758D+00
 Gap=     0.349 Goal=   None    Shift=    0.000
 Gap=     0.377 Goal=   None    Shift=    0.000
 RMSDP=8.50D-08 MaxDP=3.58D-06 DE=-1.60D-09 OVMax= 9.50D-06

 Cycle  11  Pass 1  IDiag  1:
 RMSU=  4.43D-08    CP:  1.00D+00  1.01D+00  1.10D+00  1.65D+00  9.65D-01
 E= -118.439429510723     Delta-E=       -0.000000000246 Rises=F Damp=F
 DIIS: error= 1.75D-07 at cycle   6 NSaved=   6.
 NSaved= 6 IEnMin= 6 EnMin= -118.439429510723     IErMin= 6 ErrMin= 1.75D-07
 ErrMax= 1.75D-07  0.00D+00 EMaxC= 1.00D-01 BMatC= 1.71D-11 BMatP= 5.44D-10
 IDIUse=1 WtCom= 1.00D+00 WtEn= 0.00D+00
 Coeff-Com:  0.136D-02-0.246D-02-0.139D-01-0.340D-01 0.993D-01 0.950D+00
 Coeff:      0.136D-02-0.246D-02-0.139D-01-0.340D-01 0.993D-01 0.950D+00
 Gap=     0.349 Goal=   None    Shift=    0.000
 Gap=     0.377 Goal=   None    Shift=    0.000
 RMSDP=1.98D-08 MaxDP=8.82D-07 DE=-2.46D-10 OVMax= 2.26D-06

 Cycle  12  Pass 1  IDiag  1:
 RMSU=  1.10D-08    CP:  1.00D+00  1.01D+00  1.10D+00  1.68D+00  1.06D+00
                    CP:  1.14D+00
 E= -118.439429510730     Delta-E=       -0.000000000007 Rises=F Damp=F
 DIIS: error= 5.59D-08 at cycle   7 NSaved=   7.
 NSaved= 7 IEnMin= 7 EnMin= -118.439429510730     IErMin= 7 ErrMin= 5.59D-08
 ErrMax= 5.59D-08  0.00D+00 EMaxC= 1.00D-01 BMatC= 1.56D-12 BMatP= 1.71D-11
 IDIUse=1 WtCom= 1.00D+00 WtEn= 0.00D+00
 Coeff-Com: -0.543D-03 0.608D-02 0.158D-01-0.539D-01-0.488D-01 0.186D+00
 Coeff-Com:  0.895D+00
 Coeff:     -0.543D-03 0.608D-02 0.158D-01-0.539D-01-0.488D-01 0.186D+00
 Coeff:      0.895D+00
 Gap=     0.349 Goal=   None    Shift=    0.000
 Gap=     0.377 Goal=   None    Shift=    0.000
 RMSDP=5.96D-09 MaxDP=2.33D-07 DE=-7.47D-12 OVMax= 6.80D-07

 SCF Done:  E(UM062X) =  -118.439429511     A.U. after   12 cycles
            NFock= 12  Conv=0.60D-08     -V/T= 2.0068
 <Sx>= 0.0000 <Sy>= 0.0000 <Sz>= 0.5000 <S**2>= 0.7547 S= 0.5023
 <L.S>= 0.000000000000E+00
 KE= 1.176418414060D+02 PE=-4.250670341177D+02 EE= 1.132347207748D+02
 Annihilation of the first spin contaminant:
 S**2 before annihilation     0.7547,   after     0.7500
 Leave Link  502 at Sat Sep 26 00:15:31 2020, MaxMem=   268435456 cpu:             198.6 elap:              25.0
 (Enter /applis/site/cecic/gaussian16/B.01/nehalem/g16/l701.exe)
 ... and contract with generalized density number  0.
 Compute integral first derivatives.
 Leave Link  701 at Sat Sep 26 00:15:31 2020, MaxMem=   268435456 cpu:               1.1 elap:               0.2
 (Enter /applis/site/cecic/gaussian16/B.01/nehalem/g16/l702.exe)
 L702 exits ... SP integral derivatives will be done elsewhere.
 Leave Link  702 at Sat Sep 26 00:15:31 2020, MaxMem=   268435456 cpu:               0.3 elap:               0.1
 (Enter /applis/site/cecic/gaussian16/B.01/nehalem/g16/l703.exe)
 Integral derivatives from FoFJK, PRISM(SPDF).
 Compute integral first derivatives, UseDBF=F ICtDFT=           0.
 Calling FoFJK, ICntrl=      2127 FMM=F ISym2X=0 I1Cent= 0 IOpClX= 1 NMat=1 NMatS=1 NMatT=0.
 FoFJK:  IHMeth= 1 ICntrl=    2127 DoSepK=F KAlg= 0 I1Cent=           0 FoldK=F
 IRaf=         0 NMat=       1 IRICut=       1 DoRegI=T DoRafI=F ISym2E= 0 IDoP0=0 IntGTp=1.
 FoFCou: FMM=F IPFlag=           0 FMFlag=      100000 FMFlg1=         800
         NFxFlg=           0 DoJE=F BraDBF=F KetDBF=F FulRan=T
         wScrn=  0.000000 ICntrl=      2127 IOpCl=  1 I1Cent=           0 NGrid=           0
         NMat0=    1 NMatS0=      1 NMatT0=    0 NMatD0=    1 NMtDS0=    0 NMtDT0=    0
 Symmetry not used in FoFCou.
 Leave Link  703 at Sat Sep 26 00:15:36 2020, MaxMem=   268435456 cpu:              35.8 elap:               4.5
 (Enter /applis/site/cecic/gaussian16/B.01/nehalem/g16/l716.exe)
 Dipole        =-9.15546465D-02 1.30677890D-01-1.47094965D-01
 -------------------------------------------------------------------
 Center     Atomic                   Forces (Hartrees/Bohr)
 Number     Number              X              Y              Z
 -------------------------------------------------------------------
      1        6           0.004250106   -0.004254988    0.010010026
      2        6          -0.008278735    0.013834462   -0.005607024
      3        6          -0.001533703    0.000701807   -0.000232897
      4        1           0.004458207   -0.005380847   -0.001650410
      5        1           0.003118126   -0.006234382   -0.001376522
      6        1          -0.000528063    0.000157280    0.000980636
      7        1           0.000107410   -0.000466480    0.000245248
      8        1           0.000191119    0.000310904    0.000307628
      9        1          -0.000822220    0.001636212   -0.000315950
     10        1          -0.000962247   -0.000303968   -0.002360735
 -------------------------------------------------------------------
 Cartesian Forces:  Max     0.013834462 RMS     0.004260287
 Leave Link  716 at Sat Sep 26 00:15:36 2020, MaxMem=   268435456 cpu:               0.3 elap:               0.1
 (Enter /applis/site/cecic/gaussian16/B.01/nehalem/g16/l103.exe)

 GradGradGradGradGradGradGradGradGradGradGradGradGradGradGradGradGradGrad
 Berny optimization.
 Using GEDIIS/GDIIS optimizer.
 FormGI is forming the generalized inverse of G from B-inverse, IUseBI=4.
 Internal  Forces:  Max     0.008493237 RMS     0.002222928
 Search for a local minimum.
 Step number   2 out of a maximum of  100
 All quantities printed in internal units (Hartrees-Bohrs-Radians)
 RMS Force = .22229D-02 SwitMx=.10000D-02 MixMth= 1
 Mixed Optimization -- RFO/linear search
 Update second derivatives using D2CorX and points    1    2
 DE= -1.00D-02 DEPred=-1.15D-02 R= 8.74D-01
 TightC=F SS=  1.41D+00  RLast= 4.55D-01 DXNew= 5.0454D-01 1.3640D+00
 Trust test= 8.74D-01 RLast= 4.55D-01 DXMaxT set to 5.05D-01
 ITU=  1  0
 Use linear search instead of GDIIS.
     Eigenvalues ---    0.00447   0.00468   0.02698   0.04134   0.05355
     Eigenvalues ---    0.05539   0.05650   0.09414   0.12898   0.15924
     Eigenvalues ---    0.16000   0.16000   0.16000   0.17398   0.22290
     Eigenvalues ---    0.27248   0.30043   0.31784   0.32471   0.32492
     Eigenvalues ---    0.32501   0.32526   0.32550   0.33517
 RFO step:  Lambda=-2.51079824D-03 EMin= 4.47418443D-03
 Quartic linear search produced a step of  0.43741.
 Iteration  1 RMS(Cart)=  0.04816611 RMS(Int)=  0.00836400
 Iteration  2 RMS(Cart)=  0.00459922 RMS(Int)=  0.00702610
 Iteration  3 RMS(Cart)=  0.00003705 RMS(Int)=  0.00702600
 Iteration  4 RMS(Cart)=  0.00000053 RMS(Int)=  0.00702600
 ITry= 1 IFail=0 DXMaxC= 1.35D-01 DCOld= 1.00D+10 DXMaxT= 5.05D-01 DXLimC= 3.00D+00 Rises=F
 Variable       Old X    -DE/DX   Delta X   Delta X   Delta X     New X
                                 (Linear)    (Quad)   (Total)
    R1        2.84756  -0.00849  -0.01293  -0.02732  -0.04026   2.80730
    R2        2.88988  -0.00211   0.00428  -0.01477  -0.01049   2.87938
    R3        2.06480  -0.00083  -0.01510   0.01224  -0.00286   2.06194
    R4        2.07040   0.00108  -0.01301   0.01859   0.00558   2.07598
    R5        2.05933  -0.00400  -0.01704   0.00014  -0.01689   2.04244
    R6        2.06060  -0.00338  -0.01699   0.00284  -0.01415   2.04645
    R7        2.06156  -0.00099  -0.01608   0.01256  -0.00352   2.05804
    R8        2.06161  -0.00026  -0.01658   0.01636  -0.00022   2.06139
    R9        2.05933  -0.00005  -0.01759   0.01838   0.00080   2.06013
    A1        1.96909  -0.00161   0.01525  -0.02222  -0.00713   1.96196
    A2        1.91376   0.00028   0.00496  -0.00142   0.00320   1.91696
    A3        1.88099   0.00177  -0.01285   0.03554   0.02271   1.90370
    A4        1.91493   0.00124   0.00427   0.00588   0.00987   1.92481
    A5        1.91269  -0.00044   0.00036  -0.00732  -0.00681   1.90588
    A6        1.86948  -0.00123  -0.01309  -0.00956  -0.02266   1.84683
    A7        2.05632   0.00115   0.06028  -0.00011   0.03600   2.09233
    A8        2.04062   0.00105   0.04860   0.01110   0.03549   2.07611
    A9        1.95962   0.00207   0.02509   0.07927   0.07795   2.03757
   A10        1.94737  -0.00070   0.01523  -0.02126  -0.00613   1.94125
   A11        1.93114   0.00020   0.00205  -0.00108   0.00092   1.93206
   A12        1.92866   0.00020   0.00193  -0.00050   0.00139   1.93005
   A13        1.88318   0.00030  -0.00580   0.00943   0.00353   1.88671
   A14        1.88551   0.00038  -0.00538   0.01078   0.00530   1.89082
   A15        1.88594  -0.00038  -0.00871   0.00384  -0.00486   1.88108
    D1       -2.98438   0.00288   0.05971   0.06359   0.12625  -2.85814
    D2        0.88200  -0.00378  -0.07851  -0.09177  -0.17349   0.70851
    D3       -0.84443   0.00356   0.07847   0.05472   0.13633  -0.70810
    D4        3.02195  -0.00310  -0.05974  -0.10063  -0.16341   2.85854
    D5        1.18484   0.00324   0.05820   0.06238   0.12375   1.30860
    D6       -1.23196  -0.00343  -0.08001  -0.09297  -0.17598  -1.40795
    D7       -3.12719  -0.00019   0.00934  -0.00734   0.00205  -3.12514
    D8       -1.03028  -0.00013   0.01328  -0.01030   0.00306  -1.02722
    D9        1.05782  -0.00034   0.00499  -0.00652  -0.00152   1.05630
   D10        1.01670  -0.00033  -0.00985   0.00563  -0.00429   1.01241
   D11        3.11361  -0.00027  -0.00591   0.00267  -0.00328   3.11033
   D12       -1.08147  -0.00049  -0.01421   0.00645  -0.00786  -1.08933
   D13       -1.03134   0.00070   0.00331   0.01808   0.02141  -1.00993
   D14        1.06557   0.00075   0.00725   0.01512   0.02242   1.08799
   D15       -3.12952   0.00054  -0.00105   0.01889   0.01784  -3.11167
         Item               Value     Threshold  Converged?
 Maximum Force            0.008493     0.000450     NO 
 RMS     Force            0.002223     0.000300     NO 
 Maximum Displacement     0.135492     0.001800     NO 
 RMS     Displacement     0.047825     0.001200     NO 
 Predicted change in Energy=-1.846377D-03
 Lowest energy point so far.  Saving SCF results.
 GradGradGradGradGradGradGradGradGradGradGradGradGradGradGradGradGradGrad

 Leave Link  103 at Sat Sep 26 00:15:36 2020, MaxMem=   268435456 cpu:               0.3 elap:               0.1
 (Enter /applis/site/cecic/gaussian16/B.01/nehalem/g16/l202.exe)
                          Input orientation:                          
 ---------------------------------------------------------------------
 Center     Atomic      Atomic             Coordinates (Angstroms)
 Number     Number       Type             X           Y           Z
 ---------------------------------------------------------------------
      1          6           0       -0.017188    0.025614   -0.022684
      2          6           0       -0.084673    0.131943    1.457528
      3          6           0        1.416231    0.007639   -0.539076
      4          1           0       -1.004308   -0.105978    1.973104
      5          1           0        0.601902    0.796455    1.967219
      6          1           0        1.442983   -0.054002   -1.626069
      7          1           0        1.945969    0.912371   -0.237787
      8          1           0        1.958985   -0.846493   -0.133671
      9          1           0       -0.549962   -0.866955   -0.354409
     10          1           0       -0.551110    0.875968   -0.468403
 ---------------------------------------------------------------------
                    Distance matrix (angstroms):
                    1          2          3          4          5
     1  C    0.000000
     2  C    1.485559   0.000000
     3  C    1.523704   2.500917   0.000000
     4  H    2.230447   1.080812   3.490410   0.000000
     5  H    2.221977   1.082934   2.750795   1.842371   0.000000
     6  H    2.170088   3.446284   1.089069   4.352698   3.787138
     7  H    2.164854   2.758018   1.090842   3.824815   2.584957
     8  H    2.162903   2.768716   1.090174   3.710522   2.992439
     9  H    1.091132   2.120709   2.159845   2.490549   3.079558
    10  H    1.098563   2.116683   2.151608   2.670311   2.695925
                    6          7          8          9         10
     6  H    0.000000
     7  H    1.764709   0.000000
     8  H    1.766792   1.761991   0.000000
     9  H    2.499969   3.067454   2.518722   0.000000
    10  H    2.486251   2.507970   3.062597   1.746648   0.000000
 Symmetry turned off by external request.
 Stoichiometry    C3H7(2)
 Framework group  C1[X(C3H7)]
 Deg. of freedom    24
 Full point group                 C1      NOp   1
 Rotational constants (GHZ):          32.8928266           9.1061876           7.9087549
 Leave Link  202 at Sat Sep 26 00:15:36 2020, MaxMem=   268435456 cpu:               0.0 elap:               0.0
 (Enter /applis/site/cecic/gaussian16/B.01/nehalem/g16/l301.exe)
 Standard basis: CC-pVTZ (5D, 7F)
 Ernie: Thresh=  0.10000D-02 Tol=  0.10000D-05 Strict=F.
 Ernie:  9 primitive shells out of 134 were deleted.
   188 basis functions,   275 primitive gaussians,   210 cartesian basis functions
    13 alpha electrons       12 beta electrons
       nuclear repulsion energy        76.2115068814 Hartrees.
 IExCor= 4336 DFT=T Ex+Corr=M062X ExCW=0 ScaHFX=  0.540000
 ScaDFX=  1.000000  1.000000  1.000000  1.000000 ScalE2=  1.000000  1.000000
[...]
 (Enter /applis/site/cecic/gaussian16/B.01/nehalem/g16/l601.exe)
 Copying SCF densities to generalized density rwf, IOpCl= 1 IROHF=0.

 **********************************************************************

            Population analysis using the SCF Density.

 **********************************************************************

 Orbital symmetries:
 Alpha Orbitals:
       Occupied  (A) (A) (A) (A) (A) (A) (A) (A) (A) (A) (A) (A)
                 (A)
       Virtual   (A) (A) (A) (A) (A) (A) (A) (A) (A) (A) (A) (A)
                 (A) (A) (A) (A) (A) (A) (A) (A) (A) (A) (A) (A)
                 (A) (A) (A) (A) (A) (A) (A) (A) (A) (A) (A) (A)
                 (A) (A) (A) (A) (A) (A) (A) (A) (A) (A) (A) (A)
                 (A) (A) (A) (A) (A) (A) (A) (A) (A) (A) (A) (A)
                 (A) (A) (A) (A) (A) (A) (A) (A) (A) (A) (A) (A)
                 (A) (A) (A) (A) (A) (A) (A) (A) (A) (A) (A) (A)
                 (A) (A) (A) (A) (A) (A) (A) (A) (A) (A) (A) (A)
                 (A) (A) (A) (A) (A) (A) (A) (A) (A) (A) (A) (A)
                 (A) (A) (A) (A) (A) (A) (A) (A) (A) (A) (A) (A)
                 (A) (A) (A) (A) (A) (A) (A) (A) (A) (A) (A) (A)
                 (A) (A) (A) (A) (A) (A) (A) (A) (A) (A) (A) (A)
                 (A) (A) (A) (A) (A) (A) (A) (A) (A) (A) (A) (A)
                 (A) (A) (A) (A) (A) (A) (A) (A) (A) (A) (A) (A)
                 (A) (A) (A) (A) (A) (A) (A) (A) (A) (A) (A) (A)
                 (A) (A) (A) (A) (A) (A) (A) (A) (A) (A) (A) (A)
                 (A) (A) (A) (A) (A) (A) (A) (A) (A) (A) (A) (A)
                 (A) (A) (A) (A) (A) (A) (A) (A) (A) (A) (A) (A)
                 (A) (A) (A) (A) (A) (A) (A) (A) (A) (A) (A) (A)
                 (A) (A) (A) (A) (A) (A) (A) (A) (A) (A) (A) (A)
                 (A) (A) (A) (A) (A) (A) (A) (A) (A) (A) (A) (A)
                 (A) (A) (A) (A) (A) (A) (A) (A) (A) (A) (A) (A)
                 (A) (A) (A) (A) (A) (A) (A) (A) (A) (A) (A) (A)
                 (A) (A) (A) (A) (A) (A) (A) (A) (A) (A)
 Beta  Orbitals:
       Occupied  (A) (A) (A) (A) (A) (A) (A) (A) (A) (A) (A) (A)
       Virtual   (A) (A) (A) (A) (A) (A) (A) (A) (A) (A) (A) (A)
                 (A) (A) (A) (A) (A) (A) (A) (A) (A) (A) (A) (A)
                 (A) (A) (A) (A) (A) (A) (A) (A) (A) (A) (A) (A)
                 (A) (A) (A) (A) (A) (A) (A) (A) (A) (A) (A) (A)
                 (A) (A) (A) (A) (A) (A) (A) (A) (A) (A) (A) (A)
                 (A) (A) (A) (A) (A) (A) (A) (A) (A) (A) (A) (A)
                 (A) (A) (A) (A) (A) (A) (A) (A) (A) (A) (A) (A)
                 (A) (A) (A) (A) (A) (A) (A) (A) (A) (A) (A) (A)
                 (A) (A) (A) (A) (A) (A) (A) (A) (A) (A) (A) (A)
                 (A) (A) (A) (A) (A) (A) (A) (A) (A) (A) (A) (A)
                 (A) (A) (A) (A) (A) (A) (A) (A) (A) (A) (A) (A)
                 (A) (A) (A) (A) (A) (A) (A) (A) (A) (A) (A) (A)
                 (A) (A) (A) (A) (A) (A) (A) (A) (A) (A) (A) (A)
                 (A) (A) (A) (A) (A) (A) (A) (A) (A) (A) (A) (A)
                 (A) (A) (A) (A) (A) (A) (A) (A) (A) (A) (A) (A)
                 (A) (A) (A) (A) (A) (A) (A) (A) (A) (A) (A) (A)
                 (A) (A) (A) (A) (A) (A) (A) (A) (A) (A) (A) (A)
                 (A) (A) (A) (A) (A) (A) (A) (A) (A) (A) (A) (A)
                 (A) (A) (A) (A) (A) (A) (A) (A) (A) (A) (A) (A)
                 (A) (A) (A) (A) (A) (A) (A) (A) (A) (A) (A) (A)
                 (A) (A) (A) (A) (A) (A) (A) (A) (A) (A) (A) (A)
                 (A) (A) (A) (A) (A) (A) (A) (A) (A) (A) (A) (A)
                 (A) (A) (A) (A) (A) (A) (A) (A) (A) (A) (A) (A)
                 (A) (A) (A) (A) (A) (A) (A) (A) (A) (A) (A)
 The electronic state is 2-A.
 Alpha  occ. eigenvalues --  -11.22545 -11.22112 -11.21171  -1.06370  -0.92773
 Alpha  occ. eigenvalues --   -0.80173  -0.62452  -0.60978  -0.56469  -0.50659
 Alpha  occ. eigenvalues --   -0.49810  -0.48529  -0.34741
 Alpha virt. eigenvalues --    0.03190   0.03924   0.04111   0.04360   0.06095
 Alpha virt. eigenvalues --    0.06393   0.06560   0.10162   0.10476   0.12054
 Alpha virt. eigenvalues --    0.12393   0.13204   0.14196   0.14272   0.14675
 Alpha virt. eigenvalues --    0.15601   0.16611   0.18771   0.20131   0.21933
 Alpha virt. eigenvalues --    0.23842   0.24519   0.25317   0.27670   0.28408
 Alpha virt. eigenvalues --    0.29561   0.30086   0.30967   0.32644   0.33790
 Alpha virt. eigenvalues --    0.33877   0.35128   0.36366   0.36751   0.36943
 Alpha virt. eigenvalues --    0.37558   0.38595   0.38804   0.39691   0.40304
 Alpha virt. eigenvalues --    0.41797   0.42134   0.43436   0.44177   0.44340
 Alpha virt. eigenvalues --    0.45143   0.45506   0.47306   0.48044   0.48896
 Alpha virt. eigenvalues --    0.49245   0.49761   0.50635   0.51257   0.52347
 Alpha virt. eigenvalues --    0.52552   0.54430   0.55066   0.57161   0.57875
 Alpha virt. eigenvalues --    0.58928   0.62089   0.63439   0.65516   0.73277
 Alpha virt. eigenvalues --    0.75838   0.77004   0.78952   0.81434   0.81916
 Alpha virt. eigenvalues --    0.83806   0.83934   0.84778   0.85619   0.86293
 Alpha virt. eigenvalues --    0.87916   0.88292   0.89832   0.90899   0.91306
 Alpha virt. eigenvalues --    0.92167   0.93183   0.94205   0.94724   0.96557
 Alpha virt. eigenvalues --    0.97119   0.98435   0.99506   1.00318   1.02466
 Alpha virt. eigenvalues --    1.03044   1.04740   1.05311   1.07353   1.08022
 Alpha virt. eigenvalues --    1.08612   1.09682   1.10511   1.11914   1.12590
 Alpha virt. eigenvalues --    1.14207   1.14877   1.18379   1.19593   1.20694
 Alpha virt. eigenvalues --    1.20996   1.22414   1.23510   1.24393   1.25249
 Alpha virt. eigenvalues --    1.26375   1.27560   1.29464   1.32219   1.33996
 Alpha virt. eigenvalues --    1.35551   1.39881   1.41571   1.42216   1.46108
 Alpha virt. eigenvalues --    1.47009   1.48396   1.51116   1.53068   1.56284
 Alpha virt. eigenvalues --    1.56874   1.58404   1.61846   1.62030   1.64353
 Alpha virt. eigenvalues --    1.68095   1.68363   1.69356   1.70287   1.70905
 Alpha virt. eigenvalues --    1.72174   1.74491   1.75404   1.76622   1.79591
 Alpha virt. eigenvalues --    1.81465   1.82330   1.85161   1.85945   1.87574
 Alpha virt. eigenvalues --    1.89538   1.91960   1.94199   1.95326   1.96024
 Alpha virt. eigenvalues --    1.99438   2.00832   2.04161   2.06207   2.07758
 Alpha virt. eigenvalues --    2.08073   2.15035   2.15346   2.19279   2.20557
 Alpha virt. eigenvalues --    2.22908   2.26290   2.26794   2.29020   2.30071
 Alpha virt. eigenvalues --    2.31854   2.35721   2.36966   2.40693   2.45018
 Alpha virt. eigenvalues --    2.49904   2.56139   2.56491   2.81313   2.95317
 Alpha virt. eigenvalues --    3.11692   3.15680   3.17793   3.22049   3.26873
 Alpha virt. eigenvalues --    3.34973   3.38207   3.41324   3.43847   3.47329
 Alpha virt. eigenvalues --    3.50399   3.53023   3.54123   3.56120   3.58342
 Alpha virt. eigenvalues --    3.59234   3.64324   3.65900   3.67430   3.69736
 Alpha virt. eigenvalues --    3.71079   3.73638   3.74614   3.76328   3.76692
 Alpha virt. eigenvalues --    3.80080   3.82869   3.84038   3.86843   3.87930
 Alpha virt. eigenvalues --    3.90768   3.93886   3.96836   3.97517   3.99040
 Alpha virt. eigenvalues --    4.01308   4.02073   4.05688   4.07759   4.11299
 Alpha virt. eigenvalues --    4.16159   4.17595   4.19170   4.21541   4.22915
 Alpha virt. eigenvalues --    4.23678   4.24816   4.29820   4.33196   4.39770
 Alpha virt. eigenvalues --    4.42050   4.48216   4.50381   4.51815   4.56627
 Alpha virt. eigenvalues --    4.60652   4.63240   4.66997   4.70589   4.71246
 Alpha virt. eigenvalues --    4.79741   4.82339   4.83767   4.84420   4.85664
 Alpha virt. eigenvalues --    4.87148   4.90485   4.93612   4.95352   5.01732
 Alpha virt. eigenvalues --    5.05874   5.07590   5.10421   5.11609   5.15735
 Alpha virt. eigenvalues --    5.17527   5.20624   5.24646   5.27496   5.33696
 Alpha virt. eigenvalues --    5.34833   5.36626   5.38509   5.42720   5.47648
 Alpha virt. eigenvalues --    5.50552   5.53070   5.55310   5.59527   5.63321
 Alpha virt. eigenvalues --    5.72072   5.75863   5.80137   5.87885   5.95354
 Alpha virt. eigenvalues --    6.00518   6.07828   6.16040   6.17622   6.22891
 Alpha virt. eigenvalues --    6.27198   6.35794   6.38702   6.50157   6.67691
 Alpha virt. eigenvalues --    6.72294   6.80058   6.85573  16.62392  17.90663
 Alpha virt. eigenvalues --   18.44048
  Beta  occ. eigenvalues --  -11.22423 -11.21116 -11.20215  -1.04473  -0.88888
  Beta  occ. eigenvalues --   -0.76996  -0.61414  -0.59594  -0.55663  -0.49302
  Beta  occ. eigenvalues --   -0.48850  -0.48082
  Beta virt. eigenvalues --    0.03224   0.03950   0.04126   0.04291   0.06110
  Beta virt. eigenvalues --    0.06402   0.06555   0.08433   0.10214   0.12048
  Beta virt. eigenvalues --    0.12446   0.13004   0.13924   0.14311   0.14699
  Beta virt. eigenvalues --    0.15614   0.16697   0.17026   0.18945   0.20319
  Beta virt. eigenvalues --    0.22574   0.24148   0.24810   0.25693   0.27863
  Beta virt. eigenvalues --    0.28685   0.29667   0.30298   0.31234   0.33745
  Beta virt. eigenvalues --    0.33962   0.34501   0.35250   0.36584   0.37012
  Beta virt. eigenvalues --    0.37358   0.38645   0.38817   0.39075   0.40062
  Beta virt. eigenvalues --    0.40730   0.42080   0.42661   0.43956   0.44361
  Beta virt. eigenvalues --    0.44663   0.45647   0.46699   0.47806   0.48646
  Beta virt. eigenvalues --    0.49408   0.50057   0.50459   0.50984   0.51495
  Beta virt. eigenvalues --    0.52541   0.53119   0.54753   0.55659   0.57502
  Beta virt. eigenvalues --    0.58531   0.59301   0.62408   0.64360   0.65847
  Beta virt. eigenvalues --    0.75249   0.76562   0.77960   0.79456   0.81964
  Beta virt. eigenvalues --    0.82521   0.84038   0.84570   0.85209   0.86132
  Beta virt. eigenvalues --    0.86810   0.88436   0.89048   0.90402   0.91141
  Beta virt. eigenvalues --    0.91778   0.92775   0.93733   0.94688   0.94972
  Beta virt. eigenvalues --    0.96741   0.97721   0.98757   0.99979   1.00822
  Beta virt. eigenvalues --    1.03302   1.03596   1.05158   1.06007   1.07846
  Beta virt. eigenvalues --    1.08649   1.09202   1.10038   1.11136   1.12067
  Beta virt. eigenvalues --    1.12844   1.14959   1.15097   1.18718   1.20075
  Beta virt. eigenvalues --    1.21115   1.21694   1.22628   1.24630   1.25042
  Beta virt. eigenvalues --    1.25542   1.26807   1.27915   1.29732   1.32538
  Beta virt. eigenvalues --    1.34327   1.36029   1.40374   1.41856   1.42480
  Beta virt. eigenvalues --    1.46314   1.47301   1.49085   1.51433   1.53797
  Beta virt. eigenvalues --    1.56537   1.58030   1.59206   1.62243   1.63255
  Beta virt. eigenvalues --    1.64772   1.68347   1.68664   1.69700   1.70617
  Beta virt. eigenvalues --    1.71102   1.72692   1.74870   1.75829   1.77438
  Beta virt. eigenvalues --    1.80102   1.81855   1.82964   1.85851   1.87316
  Beta virt. eigenvalues --    1.88579   1.90412   1.92536   1.94561   1.95613
  Beta virt. eigenvalues --    1.96804   1.99916   2.01041   2.04807   2.06722
  Beta virt. eigenvalues --    2.08359   2.08445   2.15532   2.16374   2.20153
  Beta virt. eigenvalues --    2.20883   2.23264   2.26485   2.27364   2.29221
  Beta virt. eigenvalues --    2.30485   2.32305   2.36269   2.37169   2.40954
  Beta virt. eigenvalues --    2.45442   2.50384   2.56440   2.56944   2.81883
  Beta virt. eigenvalues --    2.95612   3.15524   3.16847   3.19241   3.22430
  Beta virt. eigenvalues --    3.27288   3.36465   3.38843   3.42641   3.44319
  Beta virt. eigenvalues --    3.48330   3.51934   3.53604   3.55077   3.56814
  Beta virt. eigenvalues --    3.58957   3.61412   3.64685   3.66212   3.67787
  Beta virt. eigenvalues --    3.70298   3.72112   3.74122   3.75554   3.76728
  Beta virt. eigenvalues --    3.77119   3.81647   3.84021   3.85228   3.87346
  Beta virt. eigenvalues --    3.88381   3.92289   3.94696   3.96912   3.97842
  Beta virt. eigenvalues --    3.99430   4.02303   4.02570   4.06104   4.08114
  Beta virt. eigenvalues --    4.11804   4.16354   4.17892   4.19801   4.21913
  Beta virt. eigenvalues --    4.23237   4.24082   4.25426   4.30377   4.33495
  Beta virt. eigenvalues --    4.40162   4.42518   4.48506   4.50625   4.52291
  Beta virt. eigenvalues --    4.56871   4.60946   4.63450   4.67184   4.70855
  Beta virt. eigenvalues --    4.71352   4.80322   4.82367   4.83860   4.84598
  Beta virt. eigenvalues --    4.85778   4.87249   4.90621   4.93860   4.95432
  Beta virt. eigenvalues --    5.01911   5.05990   5.07865   5.10607   5.11854
  Beta virt. eigenvalues --    5.16049   5.17721   5.20866   5.25034   5.28245
  Beta virt. eigenvalues --    5.33992   5.35283   5.36957   5.38837   5.43014
  Beta virt. eigenvalues --    5.47922   5.50751   5.53460   5.55474   5.59738
  Beta virt. eigenvalues --    5.63559   5.72340   5.76047   5.80230   5.88098
  Beta virt. eigenvalues --    5.95625   6.00572   6.08072   6.16187   6.17687
  Beta virt. eigenvalues --    6.22924   6.27517   6.36046   6.38945   6.50488
  Beta virt. eigenvalues --    6.68068   6.72392   6.80088   6.85638  16.63545
  Beta virt. eigenvalues --   17.90881  18.44205
          Condensed to atoms (all electrons):
               1          2          3          4          5          6
     1  C    5.138298   0.073639   0.139046  -0.042405  -0.002037  -0.005793
     2  C    0.073639   6.324733   0.028521   0.392758   0.316132  -0.002071
     3  C    0.139046   0.028521   5.549629   0.007457   0.000919   0.421395
     4  H   -0.042405   0.392758   0.007457   0.292862  -0.018689  -0.000486
     5  H   -0.002037   0.316132   0.000919  -0.018689   0.257402   0.001004
     6  H   -0.005793  -0.002071   0.421395  -0.000486   0.001004   0.281918
     7  H    0.018750  -0.002832   0.388884   0.002587  -0.005503   0.013089
     8  H    0.023929  -0.011418   0.384665   0.003067  -0.004445   0.016211
     9  H    0.442199  -0.036809  -0.020753  -0.008145   0.005391  -0.004093
    10  H    0.418807  -0.014402  -0.003554   0.000783  -0.000634   0.003100
               7          8          9         10
     1  C    0.018750   0.023929   0.442199   0.418807
     2  C   -0.002832  -0.011418  -0.036809  -0.014402
     3  C    0.388884   0.384665  -0.020753  -0.003554
     4  H    0.002587   0.003067  -0.008145   0.000783
     5  H   -0.005503  -0.004445   0.005391  -0.000634
     6  H    0.013089   0.016211  -0.004093   0.003100
     7  H    0.301928   0.013052  -0.002353   0.001388
     8  H    0.013052   0.287550   0.001003  -0.002648
     9  H   -0.002353   0.001003   0.363797  -0.005020
    10  H    0.001388  -0.002648  -0.005020   0.354514
          Atomic-Atomic Spin Densities.
               1          2          3          4          5          6
     1  C   -0.136369  -0.098211   0.002307   0.007140  -0.002020   0.002313
     2  C   -0.098211   1.368048   0.000914  -0.015326  -0.000830  -0.000040
     3  C    0.002307   0.000914   0.022524  -0.000449   0.001775  -0.002574
     4  H    0.007140  -0.015326  -0.000449  -0.061928  -0.001090  -0.000149
     5  H   -0.002020  -0.000830   0.001775  -0.001090  -0.045935   0.000339
     6  H    0.002313  -0.000040  -0.002574  -0.000149   0.000339  -0.000592
     7  H    0.000677  -0.000602  -0.001056  -0.000147  -0.000539   0.000447
     8  H   -0.000642  -0.004889   0.000182  -0.000274  -0.000424  -0.001085
     9  H    0.004889  -0.014653   0.005664  -0.001086   0.000804  -0.001352
    10  H    0.031668  -0.027051  -0.005051   0.001354  -0.000686   0.001678
               7          8          9         10
     1  C    0.000677  -0.000642   0.004889   0.031668
     2  C   -0.000602  -0.004889  -0.014653  -0.027051
     3  C   -0.001056   0.000182   0.005664  -0.005051
     4  H   -0.000147  -0.000274  -0.001086   0.001354
     5  H   -0.000539  -0.000424   0.000804  -0.000686
     6  H    0.000447  -0.001085  -0.001352   0.001678
     7  H   -0.000458  -0.000642   0.000462  -0.000965
     8  H   -0.000642   0.002847   0.003722  -0.002742
     9  H    0.000462   0.003722   0.043065  -0.018135
    10  H   -0.000965  -0.002742  -0.018135   0.081547
 Mulliken charges and spin densities:
               1          2
     1  C   -0.204432  -0.188246
     2  C   -1.068251   1.207358
     3  C   -0.896207   0.024237
     4  H    0.370211  -0.071954
     5  H    0.450458  -0.048605
     6  H    0.275727  -0.001016
     7  H    0.271011  -0.002823
     8  H    0.289034  -0.003947
     9  H    0.264784   0.023380
    10  H    0.247665   0.061617
 Sum of Mulliken charges =  -0.00000   1.00000
 Mulliken charges and spin densities with hydrogens summed into heavy atoms:
               1          2
     1  C    0.308017  -0.103250
     2  C   -0.247582   1.086799
     3  C   -0.060434   0.016451
 Electronic spatial extent (au):  <R**2>=            210.7692
 Charge=              0.0000 electrons
 Dipole moment (field-independent basis, Debye):
    X=              0.1202    Y=              0.1872    Z=              0.1186  Tot=              0.2521
 Quadrupole moment (field-independent basis, Debye-Ang):
   XX=            -21.3920   YY=            -20.8803   ZZ=            -21.6572
   XY=             -0.1006   XZ=              0.0727   YZ=             -0.4779
 Traceless Quadrupole moment (field-independent basis, Debye-Ang):
   XX=             -0.0822   YY=              0.4295   ZZ=             -0.3474
   XY=             -0.1006   XZ=              0.0727   YZ=             -0.4779
 Octapole moment (field-independent basis, Debye-Ang**2):
  XXX=             -0.6592  YYY=             -0.2802  ZZZ=              0.2764  XYY=              0.0695
  XXY=              1.6089  XXZ=             -0.5365  XZZ=              1.5180  YZZ=              0.5667
  YYZ=              0.5331  XYZ=              0.5933
 Hexadecapole moment (field-independent basis, Debye-Ang**3):
 XXXX=           -187.2541 YYYY=            -67.4152 ZZZZ=            -38.8770 XXXY=             -0.3322
 XXXZ=              2.4116 YYYX=              0.8183 YYYZ=             -1.9147 ZZZX=             -0.5731
 ZZZY=             -0.1747 XXYY=            -43.0664 XXZZ=            -40.9635 YYZZ=            -16.7672
 XXYZ=             -0.8845 YYXZ=             -0.4558 ZZXY=             -1.4803
 N-N= 7.614914406587D+01 E-N=-4.255770812623D+02  KE= 1.175837143413D+02
 Leave Link  601 at Sat Sep 26 01:58:49 2020, MaxMem=   327680000 cpu:               1.5 elap:               0.3
 (Enter /applis/site/cecic/gaussian16/B.01/nehalem/g16/l9999.exe)
 1\1\GINC-DAHU69\SP\UCCSD(T)-FC\Aug-CC-pVTZ\C3H7(2)\TINACCIL\26-Sep-202
 0\0\\#P CCSD(T)/aug-cc-pvtz geom=allcheck guess=read\\Title\\0,2\C,0,-
 0.026023699,0.034438503,-0.028261613\C,0,-0.1122368504,0.1757884017,1.
 4480551323\C,0,1.4127657938,0.0195168127,-0.5361931291\H,0,-1.01836396
 69,-0.0710014428,1.9799105672\H,0,0.6711597888,0.6832998303,1.99257046
 64\H,0,1.4518681963,-0.0676315524,-1.6211877573\H,0,1.9280526491,0.938
 0422577,-0.2527795212\H,0,1.9635678665,-0.817018081,-0.1061751896\H,0,
 -0.543984749,-0.8753452901,-0.3435355203\H,0,-0.5679760727,0.856472709
 ,-0.5166517384\\Version=ES64L-G16RevB.01\State=2-A\HF=-117.676536\MP2=
 -118.1882199\MP3=-118.226595\MP4D=-118.2380632\MP4DQ=-118.2263311\PUHF
 =-117.679969\PMP2-0=-118.1903919\PMP3-0=-118.2278404\MP4SDQ=-118.22935
 26\CCSD=-118.2297037\CCSD(T)=-118.2499877\S2=0.763164\S2-1=0.753442\S2
 A=0.750115\RMSD=2.749e-09\PG=C01 [X(C3H7)]\\@


 IF YOU PERCEIVE THAT THERE ARE FOUR POSSIBLE WAYS IN
 WHICH A PROCEDURE CAN GO WRONG AND CIRCUMVENT THESE, 
 THEN A FIFTH WAY WILL DEVELOP.

                              -- MURPHY'S TWELFTH LAW
 Job cpu time:       0 days 12 hours 16 minutes 27.6 seconds.
 Elapsed time:       0 days  1 hours 34 minutes 49.8 seconds.
 File lengths (MBytes):  RWF=  22668 Int=      0 D2E=      0 Chk=     10 Scr=      1
 Normal termination of Gaussian 16 at Sat Sep 26 01:58:50 2020.
