      -----------------------------------------------------------      
     |                   =====================                   |     
     |                           x T B                           |     
     |                   =====================                   |     
     |                         S. Grimme                         |     
     |          Mulliken Center for Theoretical Chemistry        |     
     |                    University of Bonn                     |     
      -----------------------------------------------------------      

   * xtb version 6.2.2 (9d81278992624c895f80dd42a50cac0aa55982e2) compiled by '@Darwin' on 04/03/2020

   xtb is free software: you can redistribute it and/or modify it under
   the terms of the GNU Lesser General Public License as published by
   the Free Software Foundation, either version 3 of the License, or
   (at your option) any later version.
   
   xtb is distributed in the hope that it will be useful,
   but WITHOUT ANY WARRANTY; without even the implied warranty of
   MERCHANTABILITY or FITNESS FOR A PARTICULAR PURPOSE.  See the
   GNU Lesser General Public License for more details.
   
   Cite this work as:
   * S. Grimme, C. Bannwarth, P. Shushkov, J. Chem. Theory Comput., 2017,
     13, 1989-2009. DOI: 10.1021/acs.jctc.7b00118
   * C. Bannwarth, S. Ehlert and S. Grimme., J. Chem. Theory Comput., 2019,
     15, 1652-1671. DOI: 10.1021/acs.jctc.8b01176
   * P. Pracht, E. Caldeweyher, S. Ehlert, S. Grimme, ChemRxiv, 2019, preprint.
     DOI: 10.26434/chemrxiv.8326202.v1
   
   for DFT-D4:
   * E. Caldeweyher, C. Bannwarth and S. Grimme, J. Chem. Phys., 2017,
     147, 034112. DOI: 10.1063/1.4993215
   * E. Caldeweyher, S. Ehlert, A. Hansen, H. Neugebauer, S. Spicher,
     C. Bannwarth and S. Grimme, J. Chem. Phys., 2019, 150, 154122.
     DOI: 10.1063/1.5090222
   
   for sTDA-xTB:
   * S. Grimme and C. Bannwarth, J. Chem. Phys., 2016, 145, 054103.
     DOI: 10.1063/1.4959605
   
   in the mass-spec context:
   * V. Asgeirsson, C. Bauer and S. Grimme, Chem. Sci., 2017, 8, 4879.
     DOI: 10.1039/c7sc00601b
   
   for metadynamics refer to:
   * S. Grimme, J. Chem. Theory Comput., 2019, 155, 2847-2862
     DOI: 10.1021/acs.jctc.9b00143
   
   with help from (in alphabetical order)
   C. Bannwarth, F. Bohle, G. Brandenburg, E. Caldeweyher, M. Checinski,
   S. Dohm, S. Ehlert, S. Ehrlich, F. März, H. Neugebauer, J. Pisarek,
   P. Pracht, P. Shushkov, and S. Spicher.
   
 * started run on 2020/05/13 at 16:22:22.226     

           -------------------------------------------------
          |                Calculation Setup                |
           -------------------------------------------------

          program call               : xtb --input N2_0_S_0.input N2_0_S_0.xyz --ohess --molden --namespace N2_0_S_0 output.out
          calculation namespace      : N2_0_S_0
          coordinate file            : N2_0_S_0.xyz
          number of atoms            :                     2
          number of electrons        :                    10
          charge                     :                     0
          spin                       :                   0.0
          first test random number   :      0.35731075684619

   ID    Z sym.   atoms
    1    7 N      1, 2

           -------------------------------------------------
          |                 G F N 2 - x T B                 |
           -------------------------------------------------

        Reference                      10.1021/acs.jctc.8b01176
      * Hamiltonian:
        H0-scaling (s, p, d)           1.850000    2.230000    2.230000
        zeta-weighting                 0.500000
      * Dispersion:
        s8                             2.700000
        a1                             0.520000
        a2                             5.000000
        s9                             5.000000
      * Repulsion:
        kExp                           1.500000    1.000000
        rExp                           1.000000
      * Coulomb:
        alpha                          2.000000
        third order                    shell-resolved
        anisotropic                    true
        a3                             3.000000
        a5                             4.000000
        cn-shift                       1.200000
        cn-exp                         4.000000
        max-rad                        5.000000


          ...................................................
          :                      SETUP                      :
          :.................................................:
          :  # basis functions                   8          :
          :  # atomic orbitals                   8          :
          :  # shells                            4          :
          :  # electrons                        10          :
          :  max. iterations                   250          :
          :  Hamiltonian                  GFN2-xTB          :
          :  restarted?                      false          :
          :  GBSA solvation                  false          :
          :  PC potential                    false          :
          :  electronic temp.          300.0000000     K    :
          :  accuracy                    1.0000000          :
          :  -> integral cutoff          0.2500000E+02      :
          :  -> integral neglect         0.1000000E-07      :
          :  -> SCF convergence          0.1000000E-05 Eh   :
          :  -> wf. convergence          0.1000000E-03 e    :
          :  Broyden damping             0.4000000          :
          ...................................................

 iter      E             dE          RMSdq      gap      omega  full diag
   1     -5.6371744 -0.563717E+01  0.107E+01    3.51       0.0  T
   2     -5.6407980 -0.362360E-02  0.605E+00    2.99       1.0  T
   3     -5.6421237 -0.132566E-02  0.764E-01    2.33       1.0  T
   4     -5.6421350 -0.113450E-04  0.440E-02    2.37       1.6  T
   5     -5.6421351 -0.649222E-07  0.256E-04    2.37     276.3  T
   6     -5.6421351 -0.536460E-12  0.118E-04    2.37     600.6  T

   *** convergence criteria satisfied after 6 iterations ***

         #    Occupation            Energy/Eh            Energy/eV
      -------------------------------------------------------------
         1        2.0000           -0.6500659             -17.6892
         2        2.0000           -0.5760476             -15.6751
         3        2.0000           -0.5212082             -14.1828
         4        2.0000           -0.5212082             -14.1828
         5        2.0000           -0.4888985             -13.3036 (HOMO)
         6                         -0.4018992             -10.9362 (LUMO)
         7                         -0.4018992             -10.9362
         8                         -0.0288145              -0.7841
      -------------------------------------------------------------
                  HL-Gap            0.0869993 Eh            2.3674 eV
             Fermi-level           -0.4453989 Eh          -12.1199 eV

 SCC (total)                   0 d,  0 h,  0 min,  0.001 sec
 SCC setup                      ...        0 min,  0.000 sec (  7.531%)
 Dispersion                     ...        0 min,  0.000 sec (  0.665%)
 integral evaluation            ...        0 min,  0.000 sec ( 26.097%)
 zeroth order Hamiltonian       ...        0 min,  0.000 sec (  0.926%)
 iterations                     ...        0 min,  0.000 sec ( 41.986%)
 molecular gradient             ...        0 min,  0.000 sec ( 17.741%)
 printout                       ...        0 min,  0.000 sec (  4.249%)

         :::::::::::::::::::::::::::::::::::::::::::::::::::::
         ::                     SUMMARY                     ::
         :::::::::::::::::::::::::::::::::::::::::::::::::::::
         :: total energy              -5.634689983985 Eh    ::
         :: gradient norm              0.442857094407 Eh/a0 ::
         :: HOMO-LUMO gap              2.367370154127 eV    ::
         ::.................................................::
         :: SCC energy                -5.642135087849 Eh    ::
         :: -> isotropic ES            0.000838733759 Eh    ::
         :: -> anisotropic ES          0.000047048947 Eh    ::
         :: -> anisotropic XC          0.029944508957 Eh    ::
         :: -> dispersion             -0.000255654277 Eh    ::
         :: repulsion energy           0.007445103883 Eh    ::
         :: add. restraining           0.000000000000 Eh    ::
         :::::::::::::::::::::::::::::::::::::::::::::::::::::

      ----------------------------------------------------------- 
     |                   =====================                   |
     |                        A N C O P T                        |
     |                   =====================                   |
     |               Approximate Normal Coordinate               |
     |                Rational Function Optimizer                |
      ----------------------------------------------------------- 

          ...................................................
          :                      SETUP                      :
          :.................................................:
          :   optimization level            normal          :
          :   max. optcycles                   200          :
          :   ANC micro-cycles                  20          :
          :   degrees of freedom                 1          :
          :.................................................:
          :   RF solver                   davidson          :
          :   write xtbopt.log                true          :
          :   linear (good luck)              true          :
          :   energy convergence         0.5000000E-05 Eh   :
          :   grad. convergence          0.1000000E-02 Eh/α :
          :   maximium RF displ.         1.0000000          :
          :   Hlow (freq-cutoff)         0.1000000E-01      :
          :   Hmax (freq-cutoff)         5.0000000          :
          :   S6 in model hess.         20.0000000          :
          ...................................................

generating ANC from model Hessian ...
Using Lindh-Hessian (1995)
 Shifting diagonal of input Hessian by    9.9869923180113482E-003
 Lowest  eigenvalues of input Hessian
   -0.000000    0.000000    0.000000    0.010000    0.010000    1.141392
 Highest eigenvalues
   -0.000000    0.000000    0.000000    0.010000    0.010000    1.141392


........................................................................
.............................. CYCLE    1 ..............................
........................................................................
   1     -5.6421351 -0.564214E+01  0.295E-07    2.37       0.0  T
   2     -5.6421351 -0.888178E-15  0.151E-07    2.37  100000.0  T
   3     -5.6421351 -0.266454E-14  0.122E-08    2.37  100000.0  T
     SCC iter.                  ...        0 min,  0.000 sec
     gradient                   ...        0 min,  0.000 sec
 * total energy  :    -5.6346900 Eh     change       -0.2389200E-12 Eh
   gradient norm :     0.4428555 Eh/α   predicted     0.0000000E+00 (-100.00%)
   displ. norm   :     0.3424855 α      lambda       -0.1516716E+00
   maximum displ.:     0.3424855 α      in ANC's #1, #1, #1, ...

........................................................................
.............................. CYCLE    2 ..............................
........................................................................
   1     -5.8188650 -0.581887E+01  0.397E+00    4.28       0.0  T
   2     -5.8192015 -0.336505E-03  0.221E+00    4.06       1.0  T
   3     -5.8193342 -0.132623E-03  0.154E-01    3.77       1.0  T
   4     -5.8193344 -0.253385E-06  0.788E-03    3.77       9.0  T
   5     -5.8193344 -0.172148E-08  0.150E-05    3.77    4721.5  T
   6     -5.8193344  0.266454E-14  0.758E-06    3.77    9324.8  T
     SCC iter.                  ...        0 min,  0.000 sec
     gradient                   ...        0 min,  0.000 sec
 * total energy  :    -5.7587387 Eh     change       -0.1240487E+00 Eh
   gradient norm :     0.1615941 Eh/α   predicted    -0.8473108E-01 ( -31.70%)
   displ. norm   :     0.1896893 α      lambda       -0.3065268E-01
   maximum displ.:     0.1896893 α      in ANC's #1, #1, #1, ...

........................................................................
.............................. CYCLE    3 ..............................
........................................................................
   1     -5.9115460 -0.591155E+01  0.265E+00    5.41       0.0  T
   2     -5.9116485 -0.102499E-03  0.150E+00    5.27       1.0  T
   3     -5.9116907 -0.421730E-04  0.701E-02    5.08       1.0  T
   4     -5.9116907 -0.848816E-07  0.673E-03    5.08      10.5  T
   5     -5.9116907 -0.138908E-08  0.406E-06    5.08   17419.1  T
   6     -5.9116907 -0.355271E-14  0.151E-06    5.08   46813.2  T
     SCC iter.                  ...        0 min,  0.000 sec
     gradient                   ...        0 min,  0.000 sec
 * total energy  :    -5.7303069 Eh     change        0.2843179E-01 Eh
   gradient norm :     0.5892676 Eh/α   predicted    -0.1587781E-01 (-155.85%)
   displ. norm   :     0.1457055 α      lambda       -0.8585953E-01
   maximum displ.:     0.1457055 α      in ANC's #1, #1, #1, ...

........................................................................
.............................. CYCLE    4 ..............................
........................................................................
   1     -5.8418334 -0.584183E+01  0.207E+00    3.77       0.0  T
   2     -5.8419260 -0.926662E-04  0.115E+00    3.88       1.0  T
   3     -5.8419641 -0.380882E-04  0.606E-02    4.02       1.2  T
   4     -5.8419641 -0.374419E-07  0.392E-03    4.02      18.1  T
   5     -5.8419642 -0.395897E-10  0.246E-06    4.02   28691.5  T
   6     -5.8419642  0.177636E-14  0.135E-06    4.02   52487.2  T
     SCC iter.                  ...        0 min,  0.000 sec
     gradient                   ...        0 min,  0.000 sec
 * total energy  :    -5.7635057 Eh     change       -0.3319878E-01 Eh
   gradient norm :     0.0504165 Eh/α   predicted    -0.4384117E-01 (  32.06%)
   displ. norm   :     0.0114822 α      lambda       -0.5788895E-03
   maximum displ.:     0.0114822 α      in ANC's #1, #1, #1, ...

........................................................................
.............................. CYCLE    5 ..............................
........................................................................
   1     -5.8477889 -0.584779E+01  0.157E-01    4.11       0.0  T
   2     -5.8477894 -0.506200E-06  0.874E-02    4.11       1.0  T
   3     -5.8477896 -0.206116E-06  0.485E-03    4.10      14.6  T
   4     -5.8477896 -0.256907E-09  0.173E-04    4.10     409.4  T
   5     -5.8477896 -0.409450E-12  0.185E-07    4.10  100000.0  T
     SCC iter.                  ...        0 min,  0.000 sec
     gradient                   ...        0 min,  0.000 sec
 * total energy  :    -5.7638917 Eh     change       -0.3859444E-03 Eh
   gradient norm :     0.0164385 Eh/α   predicted    -0.2894844E-03 ( -24.99%)
   displ. norm   :     0.0055549 α      lambda       -0.9131234E-04
   maximum displ.:     0.0055549 α      in ANC's #1, #1, #1, ...

........................................................................
.............................. CYCLE    6 ..............................
........................................................................
   1     -5.8505932 -0.585059E+01  0.764E-02    4.14       0.0  T
   2     -5.8505933 -0.118285E-06  0.425E-02    4.14       1.7  T
   3     -5.8505933 -0.482559E-07  0.233E-03    4.13      30.3  T
   4     -5.8505933 -0.606430E-10  0.321E-05    4.13    2205.9  T
   5     -5.8505933 -0.159872E-13  0.791E-08    4.13  100000.0  T
     SCC iter.                  ...        0 min,  0.000 sec
     gradient                   ...        0 min,  0.000 sec
 * total energy  :    -5.7639353 Eh     change       -0.4365698E-04 Eh
   gradient norm :     0.0008104 Eh/α   predicted    -0.4565883E-04 (   4.59%)
   displ. norm   :     0.0003915 α      lambda       -0.2129153E-06
   maximum displ.:     0.0003915 α      in ANC's #1, #1, #1, ...

........................................................................
.............................. CYCLE    7 ..............................
........................................................................
   1     -5.8503961 -0.585040E+01  0.539E-03    4.13       0.0  T
   2     -5.8503961 -0.590526E-09  0.300E-03    4.13      23.6  T
   3     -5.8503961 -0.241004E-09  0.164E-04    4.13     430.5  T
   4     -5.8503961 -0.301092E-12  0.570E-08    4.13  100000.0  T
     SCC iter.                  ...        0 min,  0.000 sec
     gradient                   ...        0 min,  0.000 sec
 * total energy  :    -5.7639354 Eh     change       -0.7574365E-07 Eh
   gradient norm :     0.0004230 Eh/α   predicted    -0.1057520E-06 (  39.62%)
   displ. norm   :     0.0001343 α      lambda       -0.3481414E-07
   maximum displ.:     0.0001343 α      in ANC's #1, #1, #1, ...

   *** GEOMETRY OPTIMIZATION CONVERGED AFTER 7 ITERATIONS ***

------------------------------------------------------------------------
 total energy gain   :        -0.1292454 Eh      -81.1027 kcal/mol
 total RMSD          :         0.2850453 a0        0.1508 Å
 total power (kW/mol):       -48.4762533 (step)********** (real)
------------------------------------------------------------------------

 ANCopt (total)                0 d,  0 h,  0 min,  0.006 sec
 optimizer setup                ...        0 min,  0.000 sec (  0.868%)
 model hessian                  ...        0 min,  0.000 sec (  0.267%)
 ANC generation                 ...        0 min,  0.000 sec (  0.386%)
 coordinate transformation      ...        0 min,  0.000 sec (  0.235%)
 single point calculation       ...        0 min,  0.005 sec ( 89.262%)
 optimization log               ...        0 min,  0.000 sec (  2.290%)
 hessian update                 ...        0 min,  0.000 sec (  0.275%)
 rational function              ...        0 min,  0.000 sec (  2.219%)

================
 final structure:
================
2
 xtb: 6.2.2 (9d81278992624c895f80dd42a50cac0aa55982e2)
N         0.54916050122411    0.00000000000000    0.00000000000000
N        -0.54916050122411   -0.00000000000000    0.00000000000000

 Bond Distances (Angstroems)
 ---------------------------
N1-N2=1.0983         N2-N1=1.0983         
 N  N  Rav=1.0983 sigma=0.0000  Rmin=1.0983  Rmax=1.0983     1

 selected bond angles (degree)
 --------------------


 selected dihedral angles (degree)
 ---------------------------------

           -------------------------------------------------
          |                Final Singlepoint                |
           -------------------------------------------------

          ...................................................
          :                      SETUP                      :
          :.................................................:
          :  # basis functions                   8          :
          :  # atomic orbitals                   8          :
          :  # shells                            4          :
          :  # electrons                        10          :
          :  max. iterations                   250          :
          :  Hamiltonian                  GFN2-xTB          :
          :  restarted?                      false          :
          :  GBSA solvation                  false          :
          :  PC potential                    false          :
          :  electronic temp.          300.0000000     K    :
          :  accuracy                    1.0000000          :
          :  -> integral cutoff          0.2500000E+02      :
          :  -> integral neglect         0.1000000E-07      :
          :  -> SCF convergence          0.1000000E-05 Eh   :
          :  -> wf. convergence          0.1000000E-03 e    :
          :  Broyden damping             0.4000000          :
          ...................................................

 iter      E             dE          RMSdq      gap      omega  full diag
   1     -5.8503961 -0.585040E+01  0.443E-08    4.13       0.0  T
   2     -5.8503961  0.266454E-14  0.239E-08    4.13  100000.0  T
   3     -5.8503961 -0.177636E-14  0.526E-09    4.13  100000.0  T

   *** convergence criteria satisfied after 3 iterations ***

         #    Occupation            Energy/Eh            Energy/eV
      -------------------------------------------------------------
         1        2.0000           -0.7172576             -19.5176
         2        2.0000           -0.5734462             -15.6043
         3        2.0000           -0.5734462             -15.6043
         4        2.0000           -0.5698366             -15.5060
         5        2.0000           -0.4514427             -12.2844 (HOMO)
         6                         -0.2997536              -8.1567 (LUMO)
         7                         -0.2997536              -8.1567
         8                          0.7702520              20.9596
      -------------------------------------------------------------
                  HL-Gap            0.1516891 Eh            4.1277 eV
             Fermi-level           -0.3755981 Eh          -10.2205 eV

 SCC (total)                   0 d,  0 h,  0 min,  0.001 sec
 SCC setup                      ...        0 min,  0.000 sec (  6.458%)
 Dispersion                     ...        0 min,  0.000 sec (  0.572%)
 integral evaluation            ...        0 min,  0.000 sec ( 40.061%)
 zeroth order Hamiltonian       ...        0 min,  0.000 sec (  0.605%)
 iterations                     ...        0 min,  0.000 sec ( 17.323%)
 molecular gradient             ...        0 min,  0.000 sec ( 25.563%)
 printout                       ...        0 min,  0.000 sec (  8.342%)

         :::::::::::::::::::::::::::::::::::::::::::::::::::::
         ::                     SUMMARY                     ::
         :::::::::::::::::::::::::::::::::::::::::::::::::::::
         :: total energy              -5.763935392238 Eh    ::
         :: gradient norm              0.000422988463 Eh/a0 ::
         :: HOMO-LUMO gap              4.127671122074 eV    ::
         ::.................................................::
         :: SCC energy                -5.850396064635 Eh    ::
         :: -> isotropic ES            0.000102595916 Eh    ::
         :: -> anisotropic ES          0.000342310757 Eh    ::
         :: -> anisotropic XC          0.027047875394 Eh    ::
         :: -> dispersion             -0.000255719426 Eh    ::
         :: repulsion energy           0.086460672417 Eh    ::
         :: add. restraining           0.000000000000 Eh    ::
         :::::::::::::::::::::::::::::::::::::::::::::::::::::

           ------------------------------------------------- 
          |                Numerical Hessian                |
           ------------------------------------------------- 
step length          :   0.00500
SCC accuracy         :   0.30000
Hessian scale factor :   1.00000
frozen atoms in %    :   0.00000    0
RMS gradient         :   0.00042

writing file <hessian>.

 vibrational frequencies (cm-1)
eigval :        0.00     0.00     0.00     0.00     0.00  2436.72
           -------------------------------------------------
          |                Property Printout                |
           -------------------------------------------------

    * Orbital Energies and Occupations

         #    Occupation            Energy/Eh            Energy/eV
      -------------------------------------------------------------
         1        2.0000           -0.7172576             -19.5176
         2        2.0000           -0.5734462             -15.6043
         3        2.0000           -0.5734462             -15.6043
         4        2.0000           -0.5698366             -15.5060
         5        2.0000           -0.4514427             -12.2844 (HOMO)
         6                         -0.2997536              -8.1567 (LUMO)
         7                         -0.2997536              -8.1567
         8                          0.7702520              20.9596
      -------------------------------------------------------------
                  HL-Gap            0.1516891 Eh            4.1277 eV
             Fermi-level           -0.3755981 Eh          -10.2205 eV

     #   Z        covCN         q      C6AA      α(0)
     1   7 N      0.981    -0.000    20.943     6.584
     2   7 N      0.981     0.000    20.943     6.584
Molecule has the following symmetry elements: (i) (Cinf) (C2) 2*(sigma) 
It seems to be the Dinfh point group

 Mol. C6AA /au·bohr⁶  :         83.773341
 Mol. C8AA /au·bohr⁸  :       1848.107231
 Mol. α(0) /au        :         13.167612


Wiberg/Mayer (AO) data.
largest (>0.10) Wiberg bond orders for each atom
          total WBO             WBO to atom ...
     1  N   3.000        N    2 3.000
     2  N   3.000        N    1 3.000

MOs/occ written to file <molden.input>


molecular dipole:
                 x           y           z       tot (Debye)
 q only:       -0.000       0.000       0.000
   full:       -0.000       0.000       0.000       0.000
molecular quadrupole (traceless):
                xx          xy          yy          xz          yz          zz
 q only:        0.000      -0.000      -0.000      -0.000       0.000      -0.000
  q+dip:       -0.371       0.000       0.185       0.000      -0.000       0.185
   full:       -1.691       0.000       0.845       0.000      -0.000       0.845

           -------------------------------------------------
          |                Geometry Summary                 |
           -------------------------------------------------

      molecular mass/u    :       28.0134064
   center of mass at/Å    :        0.0000000      -0.0000000      -0.0000000
  moments of inertia/u·Å² :        0.8382888E-15   0.8448206E+01   0.8448206E+01
rotational constants/cm⁻¹ :        0.2010958E+17   0.1995410E+01   0.1995410E+01

 * 1 selected distances

     #   Z        #   Z                                     value/Å
     0 *** --     0 *** --                                0.0000000 (max)

 * 0 distinct bonds (by element types)

   Z      Z             #   av. dist./Å        max./Å        min./Å

           -------------------------------------------------
          |               Frequency Printout                |
           -------------------------------------------------
 vibrational frequencies (cm-1)
eigval :        0.00     0.00     0.00     0.00     0.00  2436.72
 reduced masses (amu)
   1: 14.01   2: 14.01   3: 14.01   4: 14.01   5: 14.01   6: 14.01
 IR intensities (amu)
   1:  0.00   2:  0.00   3:  0.00   4:  0.00   5:  0.00   6:  0.00
 Raman intensities (amu)
   1:  0.00   2:  0.00   3:  0.00   4:  0.00   5:  0.00   6:  0.00
 output can be read by thermo (or use thermo option).
 writing <g98.out> molden fake output.
 recommended (thermochemical) frequency scaling factor: 1.0
           -------------------------------------------------
          |             Thermodynamic Functions             |
           -------------------------------------------------

din symmetry found (for desy threshold:  0.10E+00) used in thermo

          ...................................................
          :                      SETUP                      :
          :.................................................:
          :  # frequencies                           1      :
          :  # imaginary freq.                       0      :
          :  linear?                              true      :
          :  only rotor calc.                    false      :
          :  symmetry                              din      :
          :  rotational number                       2      :
          :  scaling factor                  1.0000000      :
          :  rotor cutoff                   50.0000000 cm⁻¹ :
          :  imag. cutoff                  -20.0000000 cm⁻¹ :
          :.................................................:

    mode    ω/cm⁻¹     T·S(HO)/kcal·mol⁻¹    T·S(FR)/kcal·mol⁻¹   T·S(vib)
   ------------------------------------------------------------------------
   ------------------------------------------------------------------------

   temp. (K)  partition function   enthalpy   heat capacity  entropy
                                   cal/mol     cal/K/mol   cal/K/mol   J/K/mol
 298.15  VIB   1.00                    0.054      0.002      0.000
         ROT   51.9                  592.502      1.987      9.837
         INT   51.9                  592.556      1.989      9.837
         TR   0.143E+27             1481.254      4.968     35.909
         TOT                        2073.8100     6.9576    45.7454   191.3989

   temp. (K)  partition function   enthalpy   heat capacity  entropy
                                   cal/mol     cal/K/mol   cal/K/mol   J/K/mol
 120.00  VIB   1.00                    0.000      0.000     -0.000
         ROT   20.9                  238.471      1.987      8.028
         INT   20.9                  238.471      1.987      8.028
         TR   0.366E+26              596.178      4.968     31.389
         TOT                         834.6492     6.9554    39.4173   164.9220

   temp. (K)  partition function   enthalpy   heat capacity  entropy
                                   cal/mol     cal/K/mol   cal/K/mol   J/K/mol
 100.00  VIB   1.00                    0.000      0.000     -0.000
         ROT   17.4                  198.726      1.987      7.666
         INT   17.4                  198.726      1.987      7.666
         TR   0.279E+26              496.815      4.968     30.484
         TOT                         695.5410     6.9554    38.1496   159.6180

   temp. (K)  partition function   enthalpy   heat capacity  entropy
                                   cal/mol     cal/K/mol   cal/K/mol   J/K/mol
  80.00  VIB   1.00                    0.000      0.000     -0.000
         ROT   13.9                  158.981      1.987      7.222
         INT   13.9                  158.981      1.987      7.222
         TR   0.199E+26              397.452      4.968     29.376
         TOT                         556.4328     6.9554    36.5981   153.1265

   temp. (K)  partition function   enthalpy   heat capacity  entropy
                                   cal/mol     cal/K/mol   cal/K/mol   J/K/mol
  60.00  VIB   1.00                    0.000      0.000     -0.000
         ROT   10.4                  119.236      1.987      6.650
         INT   10.4                  119.236      1.987      6.650
         TR   0.130E+26              298.089      4.968     27.947
         TOT                         417.3246     6.9554    34.5979   144.7574

   temp. (K)  partition function   enthalpy   heat capacity  entropy
                                   cal/mol     cal/K/mol   cal/K/mol   J/K/mol
  40.00  VIB   1.00                    0.000      0.000     -0.000
         ROT   6.97                   79.490      1.987      5.845
         INT   6.97                   79.490      1.987      5.845
         TR   0.705E+25              198.726      4.968     25.934
         TOT                         278.2164     6.9554    31.7787   132.9619

   temp. (K)  partition function   enthalpy   heat capacity  entropy
                                   cal/mol     cal/K/mol   cal/K/mol   J/K/mol
  20.00  VIB   1.00                    0.000      0.000     -0.000
         ROT   3.48                   39.745      1.987      4.467
         INT   3.48                   39.745      1.987      4.467
         TR   0.249E+25               99.363      4.968     22.492
         TOT                         139.1082     6.9554    26.9592   112.7974

   temp. (K)  partition function   enthalpy   heat capacity  entropy
                                   cal/mol     cal/K/mol   cal/K/mol   J/K/mol
  10.00  VIB   1.00                    0.000      0.000     -0.000
         ROT   1.74                   19.873      1.987      3.090
         INT   1.74                   19.873      1.987      3.090
         TR   0.881E+24               49.681      4.968     19.050
         TOT                          69.5541     6.9554    22.1398    92.6329

       T/K    H(0)-H(T)+PV         H(T)/Eh          T*S/Eh         G(T)/Eh
   ------------------------------------------------------------------------
    298.15    0.330483E-02    0.885608E-02    0.217351E-01   -0.128791E-01
    120.00    0.133010E-02    0.688135E-02    0.753786E-02   -0.656506E-03
    100.00    0.110842E-02    0.665967E-02    0.607953E-02    0.580137E-03
     80.00    0.886732E-03    0.643798E-02    0.466582E-02    0.177216E-02
     60.00    0.665049E-03    0.621630E-02    0.330811E-02    0.290819E-02
     40.00    0.443366E-03    0.599462E-02    0.202570E-02    0.396892E-02
     20.00    0.221683E-03    0.577293E-02    0.859245E-03    0.491369E-02
     10.00    0.110842E-03    0.566209E-02    0.352820E-03    0.530927E-02 (used)
   ------------------------------------------------------------------------

         :::::::::::::::::::::::::::::::::::::::::::::::::::::
         ::                  THERMODYNAMIC                  ::
         :::::::::::::::::::::::::::::::::::::::::::::::::::::
         :: total free energy          -5.758626119114 Eh   ::
         ::.................................................::
         :: total energy               -5.763935392238 Eh   ::
         :: zero point energy           0.005551251567 Eh   ::
         :: G(RRHO) w/o ZPVE           -0.000241978443 Eh   ::
         :: G(RRHO) contrib.            0.005309273124 Eh   ::
         :::::::::::::::::::::::::::::::::::::::::::::::::::::

optimized geometry written to: xtbopt.xyz


           -------------------------------------------------
          | TOTAL ENERGY               -5.763935392238 Eh   |
          | TOTAL ENTHALPY             -5.758273299157 Eh   |
          | TOTAL FREE ENERGY          -5.758626119114 Eh   |
          | GRADIENT NORM               0.000422988463 Eh/α |
          | HOMO-LUMO GAP               4.127671121820 eV   |
           -------------------------------------------------

------------------------------------------------------------------------
 * finished run on 2020/05/13 at 16:22:22.261     
------------------------------------------------------------------------
 total:
 * wall-time:     0 d,  0 h,  0 min,  0.034 sec
 *  cpu-time:     0 d,  0 h,  0 min,  0.034 sec
 * ratio c/w:     0.989 speedup
 SCF:
 * wall-time:     0 d,  0 h,  0 min,  0.001 sec
 *  cpu-time:     0 d,  0 h,  0 min,  0.001 sec
 * ratio c/w:     0.999 speedup
 ANC optimizer:
 * wall-time:     0 d,  0 h,  0 min,  0.007 sec
 *  cpu-time:     0 d,  0 h,  0 min,  0.007 sec
 * ratio c/w:     0.994 speedup
 numerical hessian:
 * wall-time:     0 d,  0 h,  0 min,  0.008 sec
 *  cpu-time:     0 d,  0 h,  0 min,  0.008 sec
 * ratio c/w:     0.993 speedup

