5
 energy: -10.212762197820 gnorm: 0.000623589743 xtb: 6.2.2 (9d81278992624c895f80dd42a50cac0aa55982e2)
C        -1.09112454227250    0.70416616466386    0.04547859810336
C         0.38655511592592    0.72499633639337   -0.10642604972742
C         0.33338057471797   -0.74910307516031   -0.11563100184953
C         1.51162917209002   -0.05458713497634    0.14027936496649
C        -1.14043932047014   -0.62547329092756    0.03629808850535
