$hessian                                                                        
        0.0867488892  -0.0076962816   0.0263811609  -0.1431401885  -0.0262025054
       -0.0119665612  -0.0624083955   0.0125390571   0.0664834733  -0.0211846726
       -0.0227859584  -0.0197988755   0.1399843674   0.0441456884  -0.0610991976
       -0.0076962816   0.4873351374   0.0037455276   0.0679599505   0.0337467659
       -0.0008590538   0.0558658934  -0.0533182480  -0.0242019664  -0.0256363254
        0.0237625856   0.0059850892  -0.0904932369  -0.4915262408   0.0153304033
        0.0263811609   0.0037455276   0.0268856997  -0.0025612281  -0.0019786317
       -0.0274550923   0.0388462649   0.0094662499   0.0153698603   0.0009276174
        0.0061200088   0.0048067476  -0.0635938151  -0.0173531546  -0.0196072152
       -0.1431401885   0.0679599505  -0.0025612281   0.3220354644  -0.1256404442
        0.0338154623   0.1193715008   0.0120251947  -0.0347997056  -0.2304858722
        0.1014351868  -0.0337848630  -0.0677809045  -0.0557798879   0.0373303344
       -0.0262025054   0.0337467659  -0.0019786317  -0.1256404442   0.3784689992
       -0.0243190039  -0.0384003072  -0.2548291087   0.0191159710   0.2029672675
       -0.1085593849   0.0202443309  -0.0127240107  -0.0488272715  -0.0130626663
       -0.0119665612  -0.0008590538  -0.0274550923   0.0338154623  -0.0243190039
        0.0414007598  -0.0365643394  -0.0197285128  -0.0094822643  -0.0541055309
        0.0262593173  -0.0199453957   0.0688209692   0.0186472531   0.0154819925
       -0.0624083955   0.0558658934   0.0388462649   0.1193715008  -0.0384003072
       -0.0365643394   0.3367147667   0.1278735829   0.0369109115  -0.2503294785
       -0.0900773402  -0.0359261725  -0.1433483934  -0.0552618289  -0.0032666645
        0.0125390571  -0.0533182480   0.0094662499   0.0120251947  -0.2548291087
       -0.0197285128   0.1278735829   0.3592312487   0.0254632896  -0.1916588655
       -0.0867256801  -0.0184111462   0.0392210308   0.0356417881   0.0032101195
        0.0664834733  -0.0242019664   0.0153698603  -0.0347997056   0.0191159710
       -0.0094822643   0.0369109115   0.0254632896   0.0420102604  -0.0581249822
       -0.0233280934  -0.0204628180  -0.0104696970   0.0029507992  -0.0274350384
       -0.0211846726  -0.0256363254   0.0009276174  -0.2304858722   0.2029672675
       -0.0541055309  -0.2503294785  -0.1916588655  -0.0581249822   0.5188242985
       -0.0145129537   0.1104498657  -0.0168242751   0.0288408771   0.0008530300
       -0.0227859584   0.0237625856   0.0061200088   0.1014351868  -0.1085593849
        0.0262593173  -0.0900773402  -0.0867256801  -0.0233280934  -0.0145129537
        0.1515627486  -0.0032157441   0.0259410655   0.0199597308  -0.0058354887
       -0.0197988755   0.0059850892   0.0048067476  -0.0337848630   0.0202443309
       -0.0199453957  -0.0359261725  -0.0184111462  -0.0204628180   0.1104498657
       -0.0032157441   0.0309045839  -0.0209399547  -0.0046025298   0.0046968822
        0.1399843674  -0.0904932369  -0.0635938151  -0.0677809045  -0.0127240107
        0.0688209692  -0.1433483934   0.0392210308  -0.0104696970  -0.0168242751
        0.0259410655  -0.0209399547   0.0879692057   0.0380551514   0.0261824976
        0.0441456884  -0.4915262408  -0.0173531546  -0.0557798879  -0.0488272715
        0.0186472531  -0.0552618289   0.0356417881   0.0029507992   0.0288408771
        0.0199597308  -0.0046025298   0.0380551514   0.4847519934   0.0003576322
       -0.0610991976   0.0153304033  -0.0196072152   0.0373303344  -0.0130626663
        0.0154819925  -0.0032666645   0.0032101195  -0.0274350384   0.0008530300
       -0.0058354887   0.0046968822   0.0261824976   0.0003576322   0.0268633789
