5
 energy: -10.147085394993 gnorm: 0.201824225372 xtb: 6.2.2 (9d81278992624c895f80dd42a50cac0aa55982e2)
C        -0.99597200000000    0.79096400000000    0.18573200000000
C         0.39263100000000    0.74754000000000   -0.41600800000000
C         0.33831600000000   -0.76821500000000   -0.42594500000000
C         1.31514000000000   -0.05027400000000    0.48039200000000
C        -1.05011400000000   -0.72001600000000    0.17582800000000
5
 energy: -10.190666642004 gnorm: 0.120093717370 xtb: 6.2.2 (9d81278992624c895f80dd42a50cac0aa55982e2)
C        -1.01042727511558    0.73265277798226    0.14575338863088
C         0.37972823782882    0.74950746111017   -0.33472632518231
C         0.32526773772231   -0.77031702298261   -0.34469151642359
C         1.36577117356106   -0.05154294097866    0.39703803320725
C        -1.06033887399660   -0.66030127513116    0.13662541976777
5
 energy: -10.203422630732 gnorm: 0.137729211754 xtb: 6.2.2 (9d81278992624c895f80dd42a50cac0aa55982e2)
C        -1.02726067487439    0.65951954407043    0.10213223770218
C         0.37405107016965    0.75407119212155   -0.23851864667629
C         0.31923573918836   -0.77572233432364   -0.24854993704944
C         1.40584965486899   -0.05228423025485    0.29096161469970
C        -1.07187478935261   -0.58558517161350    0.09397373132386
5
 energy: -10.210410400476 gnorm: 0.030107964160 xtb: 6.2.2 (9d81278992624c895f80dd42a50cac0aa55982e2)
C        -1.03715776371793    0.69750765015551    0.09753087797389
C         0.37858598506257    0.75943890583194   -0.22598059474893
C         0.32336751480398   -0.78156386545226   -0.23608433762927
C         1.41967107227719   -0.05267821016024    0.27565394431547
C        -1.08446580842581   -0.62270548037495    0.08887911008885
5
 energy: -10.211543120785 gnorm: 0.011910936742 xtb: 6.2.2 (9d81278992624c895f80dd42a50cac0aa55982e2)
C        -1.04144583532910    0.69860739256531    0.08951896662650
C         0.38161853553807    0.75965718102748   -0.20474099542045
C         0.32636599336751   -0.78227500950029   -0.21485270300859
C         1.42227934143082   -0.05259935733350    0.24921473590743
C        -1.08881703500730   -0.62339120675900    0.08085899589511
5
 energy: -10.212051206082 gnorm: 0.013217023396 xtb: 6.2.2 (9d81278992624c895f80dd42a50cac0aa55982e2)
C        -1.05428624723851    0.69897546555832    0.07692204631618
C         0.38321966563761    0.75822152436664   -0.17620522474018
C         0.32803991915387   -0.78133407595973   -0.18627373419156
C         1.44473427388407   -0.05316952433246    0.21733196439410
C        -1.10170661143704   -0.62269438963277    0.06822394822146
5
 energy: -10.212289843021 gnorm: 0.008936784094 xtb: 6.2.2 (9d81278992624c895f80dd42a50cac0aa55982e2)
C        -1.06078011726784    0.69955766874904    0.07113011282734
C         0.38456412930191    0.75165972947319   -0.16273326578018
C         0.32979547699333   -0.77498054528085   -0.17282124447428
C         1.45456571037951   -0.05347607901227    0.20180592878276
C        -1.10814419940690   -0.62276177392910    0.06261746864436
5
 energy: -10.212688751187 gnorm: 0.004436921839 xtb: 6.2.2 (9d81278992624c895f80dd42a50cac0aa55982e2)
C        -1.08082640835057    0.70168781423497    0.05659055430288
C         0.38605216294126    0.73445730551925   -0.13093689796018
C         0.33259447910835   -0.75851590391794   -0.14053437008071
C         1.49083661964942   -0.05436611077554    0.16729307056125
C        -1.12865585334846   -0.62326410506073    0.04758664317676
5
 energy: -10.212720728954 gnorm: 0.005058836458 xtb: 6.2.2 (9d81278992624c895f80dd42a50cac0aa55982e2)
C        -1.09534577978540    0.70419539950550    0.04500913216183
C         0.38727027635082    0.72242028497114   -0.10755753665394
C         0.33422627181805   -0.74608236017288   -0.11819979763521
C         1.51615884423840   -0.05576242730513    0.14266659928255
C        -1.14230861262188   -0.62477189699863    0.03808060284478
5
 energy: -10.212750460242 gnorm: 0.001032240181 xtb: 6.2.2 (9d81278992624c895f80dd42a50cac0aa55982e2)
C        -1.08805606580434    0.70358335633051    0.05077991037982
C         0.38632780432500    0.72697288897334   -0.11738371126183
C         0.33354642500403   -0.75163472036894   -0.12616935129190
C         1.50497531758219   -0.05434688122465    0.15220569751020
C        -1.13679248110688   -0.62457564371025    0.04056645466369
5
 energy: -10.212751256183 gnorm: 0.001553172168 xtb: 6.2.2 (9d81278992624c895f80dd42a50cac0aa55982e2)
C        -1.09088861351919    0.70391631452478    0.04606878347826
C         0.38686886512663    0.72721608354650   -0.11189714996114
C         0.33291750812848   -0.74971214919893   -0.12411526886851
C         1.50767857398006   -0.05632693862064    0.14812195777366
C        -1.13657533371598   -0.62509431025171    0.04182067757772
5
 energy: -10.212758340532 gnorm: 0.001962105586 xtb: 6.2.2 (9d81278992624c895f80dd42a50cac0aa55982e2)
C        -1.09262549518168    0.70454171881999    0.04484617858906
C         0.38648616967432    0.72421899975469   -0.10576336655221
C         0.33342187239893   -0.74826471848265   -0.11538882213236
C         1.51378366879551   -0.05499134469149    0.14003226366669
C        -1.14106521568708   -0.62550565540054    0.03627274642882
5
 energy: -10.212762197520 gnorm: 0.000623976664 xtb: 6.2.2 (9d81278992624c895f80dd42a50cac0aa55982e2)
C        -1.09112838800657    0.70416037216991    0.04547601833881
C         0.38655169134332    0.72499854612633   -0.10642343504711
C         0.33338490063424   -0.74910112776015   -0.11563114554568
C         1.51162896821030   -0.05457946494656    0.14028454628894
C        -1.14043617218130   -0.62547932558952    0.03629301596504
