      -----------------------------------------------------------      
     |                   =====================                   |     
     |                           x T B                           |     
     |                   =====================                   |     
     |                         S. Grimme                         |     
     |          Mulliken Center for Theoretical Chemistry        |     
     |                    University of Bonn                     |     
      -----------------------------------------------------------      

   * xtb version 6.2.2 (9d81278992624c895f80dd42a50cac0aa55982e2) compiled by '@Darwin' on 04/03/2020

   xtb is free software: you can redistribute it and/or modify it under
   the terms of the GNU Lesser General Public License as published by
   the Free Software Foundation, either version 3 of the License, or
   (at your option) any later version.
   
   xtb is distributed in the hope that it will be useful,
   but WITHOUT ANY WARRANTY; without even the implied warranty of
   MERCHANTABILITY or FITNESS FOR A PARTICULAR PURPOSE.  See the
   GNU Lesser General Public License for more details.
   
   Cite this work as:
   * S. Grimme, C. Bannwarth, P. Shushkov, J. Chem. Theory Comput., 2017,
     13, 1989-2009. DOI: 10.1021/acs.jctc.7b00118
   * C. Bannwarth, S. Ehlert and S. Grimme., J. Chem. Theory Comput., 2019,
     15, 1652-1671. DOI: 10.1021/acs.jctc.8b01176
   * P. Pracht, E. Caldeweyher, S. Ehlert, S. Grimme, ChemRxiv, 2019, preprint.
     DOI: 10.26434/chemrxiv.8326202.v1
   
   for DFT-D4:
   * E. Caldeweyher, C. Bannwarth and S. Grimme, J. Chem. Phys., 2017,
     147, 034112. DOI: 10.1063/1.4993215
   * E. Caldeweyher, S. Ehlert, A. Hansen, H. Neugebauer, S. Spicher,
     C. Bannwarth and S. Grimme, J. Chem. Phys., 2019, 150, 154122.
     DOI: 10.1063/1.5090222
   
   for sTDA-xTB:
   * S. Grimme and C. Bannwarth, J. Chem. Phys., 2016, 145, 054103.
     DOI: 10.1063/1.4959605
   
   in the mass-spec context:
   * V. Asgeirsson, C. Bauer and S. Grimme, Chem. Sci., 2017, 8, 4879.
     DOI: 10.1039/c7sc00601b
   
   for metadynamics refer to:
   * S. Grimme, J. Chem. Theory Comput., 2019, 155, 2847-2862
     DOI: 10.1021/acs.jctc.9b00143
   
   with help from (in alphabetical order)
   C. Bannwarth, F. Bohle, G. Brandenburg, E. Caldeweyher, M. Checinski,
   S. Dohm, S. Ehlert, S. Ehrlich, F. März, H. Neugebauer, J. Pisarek,
   P. Pracht, P. Shushkov, and S. Spicher.
   
 * started run on 2020/05/12 at 11:44:47.157     

           -------------------------------------------------
          |                Calculation Setup                |
           -------------------------------------------------

          program call               : xtb --input H2C2N1_7_S_3.input H2C2N1_7_S_3.xyz --ohess --molden --namespace H2C2N1_7_S_3 output.out
          calculation namespace      : H2C2N1_7_S_3
          coordinate file            : H2C2N1_7_S_3.xyz
          number of atoms            :                     5
          number of electrons        :                    15
          charge                     :                     0
          spin                       :                   1.5
          first test random number   :      0.59363663607959

   ID    Z sym.   atoms
    1    7 N      1
    2    6 C      2, 3
    3    1 H      4, 5

           -------------------------------------------------
          |                 G F N 2 - x T B                 |
           -------------------------------------------------

        Reference                      10.1021/acs.jctc.8b01176
      * Hamiltonian:
        H0-scaling (s, p, d)           1.850000    2.230000    2.230000
        zeta-weighting                 0.500000
      * Dispersion:
        s8                             2.700000
        a1                             0.520000
        a2                             5.000000
        s9                             5.000000
      * Repulsion:
        kExp                           1.500000    1.000000
        rExp                           1.000000
      * Coulomb:
        alpha                          2.000000
        third order                    shell-resolved
        anisotropic                    true
        a3                             3.000000
        a5                             4.000000
        cn-shift                       1.200000
        cn-exp                         4.000000
        max-rad                        5.000000


          ...................................................
          :                      SETUP                      :
          :.................................................:
          :  # basis functions                  14          :
          :  # atomic orbitals                  14          :
          :  # shells                            8          :
          :  # electrons                        15          :
          :  max. iterations                   250          :
          :  Hamiltonian                  GFN2-xTB          :
          :  restarted?                      false          :
          :  GBSA solvation                  false          :
          :  PC potential                    false          :
          :  electronic temp.          300.0000000     K    :
          :  accuracy                    1.0000000          :
          :  -> integral cutoff          0.2500000E+02      :
          :  -> integral neglect         0.1000000E-07      :
          :  -> SCF convergence          0.1000000E-05 Eh   :
          :  -> wf. convergence          0.1000000E-03 e    :
          :  Broyden damping             0.4000000          :
          ...................................................

 iter      E             dE          RMSdq      gap      omega  full diag
   1     -7.8091261 -0.780913E+01  0.714E+00    0.44       0.0  T
   2     -7.8112143 -0.208826E-02  0.559E+00    0.25       1.0  T
   3     -7.8105559  0.658458E-03  0.421E+00    0.27       1.0  T
   4     -7.5454225  0.265133E+00  0.669E+00    0.49       1.0  T
   5     -7.8480275 -0.302605E+00  0.201E+00    0.24       1.0  T
   6     -7.8538368 -0.580932E-02  0.129E+00    0.20       1.0  T
   7     -7.8563574 -0.252055E-02  0.869E-01    0.18       1.0  T
   8     -7.8591707 -0.281336E-02  0.441E-01    0.16       1.0  T
   9     -7.8593203 -0.149512E-03  0.397E-01    0.16       1.0  T
  10     -7.8597077 -0.387487E-03  0.608E-02    0.15       1.0  T
  11     -7.8597041  0.367649E-05  0.904E-02    0.15       1.0  T
  12     -7.8597164 -0.123100E-04  0.438E-02    0.15       1.0  T
  13     -7.8597170 -0.593119E-06  0.100E-02    0.15       4.5  T
  14     -7.8597169  0.688473E-07  0.523E-03    0.15       8.6  T
  15     -7.8597170 -0.633611E-07  0.388E-03    0.15      11.5  T
  16     -7.8597170 -0.152711E-07  0.386E-04    0.15     115.7  T
  17     -7.8597170 -0.328429E-09  0.972E-05    0.15     460.1  T

   *** convergence criteria satisfied after 17 iterations ***

         #    Occupation            Energy/Eh            Energy/eV
      -------------------------------------------------------------
         1        2.0000           -0.6747288             -18.3603
       ...           ...                  ...                  ...
         3        2.0000           -0.5890046             -16.0276
         4        2.0000           -0.5490918             -14.9415
         5        2.0000           -0.4847389             -13.1904
         6        2.0000           -0.4658904             -12.6775
         7        1.0000           -0.3933521             -10.7037
         8        1.0000           -0.3545938              -9.6490
         9        0.9502           -0.3227165              -8.7816 (HOMO)
        10        0.0498           -0.3171137              -8.6291 (LUMO)
        11                          0.0098795               0.2688
        12                          0.0806455               2.1945
        13                          0.0957576               2.6057
        14                          0.1552064               4.2234
      -------------------------------------------------------------
                  HL-Gap            0.0056028 Eh            0.1525 eV
             Fermi-level           -0.3747682 Eh          -10.1980 eV

 SCC (total)                   0 d,  0 h,  0 min,  0.003 sec
 SCC setup                      ...        0 min,  0.000 sec (  2.659%)
 Dispersion                     ...        0 min,  0.000 sec (  0.420%)
 integral evaluation            ...        0 min,  0.001 sec ( 21.467%)
 zeroth order Hamiltonian       ...        0 min,  0.000 sec (  0.451%)
 iterations                     ...        0 min,  0.001 sec ( 40.917%)
 molecular gradient             ...        0 min,  0.001 sec ( 30.214%)
 printout                       ...        0 min,  0.000 sec (  3.522%)

         :::::::::::::::::::::::::::::::::::::::::::::::::::::
         ::                     SUMMARY                     ::
         :::::::::::::::::::::::::::::::::::::::::::::::::::::
         :: total energy              -7.809938160710 Eh    ::
         :: gradient norm              0.119238861490 Eh/a0 ::
         :: HOMO-LUMO gap              0.152461106730 eV    ::
         ::.................................................::
         :: SCC energy                -7.859716983732 Eh    ::
         :: -> isotropic ES           -0.014685835241 Eh    ::
         :: -> anisotropic ES          0.001370352095 Eh    ::
         :: -> anisotropic XC          0.006490325548 Eh    ::
         :: -> dispersion             -0.001579504388 Eh    ::
         :: repulsion energy           0.049778779778 Eh    ::
         :: add. restraining           0.000000000000 Eh    ::
         :::::::::::::::::::::::::::::::::::::::::::::::::::::

      ----------------------------------------------------------- 
     |                   =====================                   |
     |                        A N C O P T                        |
     |                   =====================                   |
     |               Approximate Normal Coordinate               |
     |                Rational Function Optimizer                |
      ----------------------------------------------------------- 

          ...................................................
          :                      SETUP                      :
          :.................................................:
          :   optimization level            normal          :
          :   max. optcycles                   200          :
          :   ANC micro-cycles                  20          :
          :   degrees of freedom                 9          :
          :.................................................:
          :   RF solver                   davidson          :
          :   write xtbopt.log                true          :
          :   linear?                        false          :
          :   energy convergence         0.5000000E-05 Eh   :
          :   grad. convergence          0.1000000E-02 Eh/α :
          :   maximium RF displ.         1.0000000          :
          :   Hlow (freq-cutoff)         0.1000000E-01      :
          :   Hmax (freq-cutoff)         5.0000000          :
          :   S6 in model hess.         20.0000000          :
          ...................................................

generating ANC from model Hessian ...
Using Lindh-Hessian (1995)
 Shifting diagonal of input Hessian by    0.0000000000000000     
 Lowest  eigenvalues of input Hessian
   -0.000000   -0.000000    0.000000    0.000000    0.000000    0.000000
    0.014690    0.043235    0.114481    0.147155    0.185479    0.659699
    0.855820    1.170049    1.236732
 Highest eigenvalues
    0.147155    0.185479    0.659699    0.855820    1.170049    1.236732


........................................................................
.............................. CYCLE    1 ..............................
........................................................................
   1     -7.8597170 -0.785972E+01  0.234E-05    0.15       0.0  T
   2     -7.8597170  0.609646E-11  0.484E-05    0.15     923.9  T
   3     -7.8597170 -0.279865E-11  0.384E-05    0.15    1166.1  T
     SCC iter.                  ...        0 min,  0.000 sec
     gradient                   ...        0 min,  0.001 sec
 * total energy  :    -7.8099382 Eh     change       -0.5727285E-09 Eh
   gradient norm :     0.1192390 Eh/α   predicted     0.0000000E+00 (-100.00%)
   displ. norm   :     0.3857690 α      lambda       -0.2590618E-01
   maximum displ.:     0.3085219 α      in ANC's #2, #1, #6, ...

........................................................................
.............................. CYCLE    2 ..............................
........................................................................
   1     -7.8912067 -0.789121E+01  0.244E+00    0.58       0.0  T
   2     -7.8946169 -0.341016E-02  0.122E+00    0.43       1.0  T
   3     -7.8951007 -0.483809E-03  0.664E-01    0.49       1.0  T
   4     -7.8952497 -0.148966E-03  0.208E-01    0.47       1.0  T
   5     -7.8955417 -0.292024E-03  0.831E-02    0.46       1.0  T
   6     -7.8955505 -0.883725E-05  0.322E-02    0.46       1.4  T
   7     -7.8955508 -0.247973E-06  0.651E-03    0.46       6.9  T
   8     -7.8955508 -0.234995E-07  0.835E-04    0.46      53.5  T
   9     -7.8955508 -0.116742E-08  0.330E-04    0.46     135.3  T
     SCC iter.                  ...        0 min,  0.001 sec
     gradient                   ...        0 min,  0.001 sec
 * total energy  :    -7.8334921 Eh     change       -0.2355392E-01 Eh
   gradient norm :     0.0939100 Eh/α   predicted    -0.1488074E-01 ( -36.82%)
   displ. norm   :     0.7313871 α      lambda       -0.5456178E-01
   maximum displ.:     0.4948761 α      in ANC's #2, #6, #4, ...

........................................................................
.............................. CYCLE    3 ..............................
........................................................................
   1     -7.9384603 -0.793846E+01  0.325E+00    2.05       0.0  T
   2     -7.9378005  0.659773E-03  0.187E+00    1.64       1.0  T
   3     -7.9400092 -0.220871E-02  0.164E+00    1.92       1.0  T
   4     -7.9525232 -0.125140E-01  0.397E-01    1.77       1.0  T
   5     -7.9528659 -0.342770E-03  0.922E-02    1.78       1.0  T
   6     -7.9528670 -0.110194E-05  0.212E-02    1.78       2.1  T
   7     -7.9528672 -0.192089E-06  0.559E-03    1.78       8.0  T
   8     -7.9528673 -0.636804E-07  0.189E-03    1.78      23.7  T
   9     -7.9528673 -0.319178E-08  0.446E-04    1.78     100.3  T
  10     -7.9528673 -0.386560E-09  0.121E-04    1.78     371.1  T
     SCC iter.                  ...        0 min,  0.001 sec
     gradient                   ...        0 min,  0.001 sec
 * total energy  :    -7.8569087 Eh     change       -0.2341658E-01 Eh
   gradient norm :     0.0787923 Eh/α   predicted    -0.4187421E-01 (  78.82%)
   displ. norm   :     0.2776055 α      lambda       -0.8091027E-02
   maximum displ.:     0.2063408 α      in ANC's #2, #1, #5, ...

........................................................................
.............................. CYCLE    4 ..............................
........................................................................
   1     -7.9396866 -0.793969E+01  0.694E-01    1.52       0.0  T
   2     -7.9399741 -0.287444E-03  0.364E-01    1.60       1.0  T
   3     -7.9398782  0.959029E-04  0.327E-01    1.54       1.0  T
   4     -7.9401994 -0.321207E-03  0.117E-01    1.58       1.0  T
   5     -7.9402717 -0.723035E-04  0.218E-02    1.57       2.0  T
   6     -7.9402722 -0.468604E-06  0.747E-03    1.57       6.0  T
   7     -7.9402723 -0.876467E-07  0.913E-04    1.57      49.0  T
   8     -7.9402723 -0.134377E-08  0.507E-04    1.57      88.2  T
     SCC iter.                  ...        0 min,  0.000 sec
     gradient                   ...        0 min,  0.001 sec
 * total energy  :    -7.8609604 Eh     change       -0.4051705E-02 Eh
   gradient norm :     0.0573301 Eh/α   predicted    -0.4357283E-02 (   7.54%)
   displ. norm   :     0.1692817 α      lambda       -0.7185518E-02
   maximum displ.:     0.0812972 α      in ANC's #2, #5, #8, ...

........................................................................
.............................. CYCLE    5 ..............................
........................................................................
   1     -7.9543025 -0.795430E+01  0.685E-01    1.53       0.0  T
   2     -7.9544100 -0.107532E-03  0.370E-01    1.55       1.0  T
   3     -7.9540881  0.321904E-03  0.262E-01    1.51       1.0  T
   4     -7.9544752 -0.387091E-03  0.510E-02    1.54       1.0  T
   5     -7.9544791 -0.388308E-05  0.122E-02    1.54       3.7  T
   6     -7.9544793 -0.222091E-06  0.567E-03    1.54       7.9  T
   7     -7.9544793 -0.802790E-08  0.865E-04    1.54      51.7  T
   8     -7.9544793 -0.353461E-09  0.402E-04    1.54     111.3  T
     SCC iter.                  ...        0 min,  0.000 sec
     gradient                   ...        0 min,  0.001 sec
 * total energy  :    -7.8639977 Eh     change       -0.3037316E-02 Eh
   gradient norm :     0.0260293 Eh/α   predicted    -0.3695716E-02 (  21.68%)
   displ. norm   :     0.2292630 α      lambda       -0.3718014E-02
   maximum displ.:     0.1488313 α      in ANC's #1, #2, #6, ...

........................................................................
.............................. CYCLE    6 ..............................
........................................................................
   1     -7.9559348 -0.795593E+01  0.625E-01    1.78       0.0  T
   2     -7.9558260  0.108819E-03  0.381E-01    1.70       1.0  T
   3     -7.9558688 -0.427888E-04  0.340E-01    1.77       1.0  T
   4     -7.9563561 -0.487337E-03  0.494E-02    1.74       1.0  T
   5     -7.9563629 -0.675631E-05  0.186E-02    1.74       2.4  T
   6     -7.9563633 -0.456143E-06  0.303E-03    1.74      14.8  T
   7     -7.9563633 -0.221279E-08  0.116E-03    1.74      38.5  T
   8     -7.9563633 -0.440386E-08  0.311E-04    1.74     143.7  T
   9     -7.9563633 -0.441140E-10  0.260E-05    1.74    1719.9  T
     SCC iter.                  ...        0 min,  0.001 sec
     gradient                   ...        0 min,  0.001 sec
 * total energy  :    -7.8669015 Eh     change       -0.2903821E-02 Eh
   gradient norm :     0.0267223 Eh/α   predicted    -0.1956718E-02 ( -32.62%)
   displ. norm   :     0.4401444 α      lambda       -0.5285387E-02
   maximum displ.:     0.3099500 α      in ANC's #1, #2, #6, ...

........................................................................
.............................. CYCLE    7 ..............................
........................................................................
   1     -7.9526715 -0.795267E+01  0.116E+00    2.06       0.0  T
   2     -7.9517378  0.933701E-03  0.711E-01    1.96       1.0  T
   3     -7.9494571  0.228074E-02  0.841E-01    2.12       1.0  T
   4     -7.9534960 -0.403889E-02  0.651E-02    2.03       1.0  T
   5     -7.9534999 -0.393155E-05  0.314E-02    2.02       1.4  T
   6     -7.9535007 -0.827659E-06  0.635E-03    2.02       7.0  T
   7     -7.9535008 -0.236591E-07  0.363E-03    2.02      12.3  T
   8     -7.9535008 -0.535001E-07  0.600E-04    2.02      74.5  T
   9     -7.9535008 -0.164286E-10  0.865E-05    2.02     516.8  T
     SCC iter.                  ...        0 min,  0.001 sec
     gradient                   ...        0 min,  0.001 sec
 * total energy  :    -7.8690963 Eh     change       -0.2194765E-02 Eh
   gradient norm :     0.0608845 Eh/α   predicted    -0.3154652E-02 (  43.74%)
   displ. norm   :     0.1296175 α      lambda       -0.3793036E-02
   maximum displ.:     0.1088113 α      in ANC's #1, #6, #2, ...

........................................................................
.............................. CYCLE    8 ..............................
........................................................................
   1     -7.9629197 -0.796292E+01  0.375E-01    1.96       0.0  T
   2     -7.9628730  0.466754E-04  0.281E-01    1.93       1.0  T
   3     -7.9626515  0.221521E-03  0.223E-01    1.98       1.0  T
   4     -7.9629976 -0.346158E-03  0.415E-02    1.94       1.1  T
   5     -7.9630018 -0.421320E-05  0.118E-02    1.94       3.8  T
   6     -7.9630020 -0.167319E-06  0.590E-03    1.94       7.6  T
   7     -7.9630021 -0.800332E-07  0.501E-04    1.94      89.3  T
   8     -7.9630021 -0.950910E-10  0.250E-04    1.94     179.0  T
     SCC iter.                  ...        0 min,  0.001 sec
     gradient                   ...        0 min,  0.001 sec
 * total energy  :    -7.8712798 Eh     change       -0.2183553E-02 Eh
   gradient norm :     0.0322200 Eh/α   predicted    -0.1928382E-02 ( -11.69%)
   displ. norm   :     0.2387853 α      lambda       -0.4509346E-02
   maximum displ.:     0.1949341 α      in ANC's #1, #8, #6, ...

........................................................................
.............................. CYCLE    9 ..............................
........................................................................
   1     -7.9705169 -0.797052E+01  0.594E-01    1.96       0.0  T
   2     -7.9704959  0.209696E-04  0.343E-01    1.95       1.0  T
   3     -7.9694528  0.104317E-02  0.403E-01    2.02       1.0  T
   4     -7.9706072 -0.115447E-02  0.402E-02    1.97       1.1  T
   5     -7.9706081 -0.882132E-06  0.184E-02    1.97       2.4  T
   6     -7.9706083 -0.144973E-06  0.328E-03    1.97      13.6  T
   7     -7.9706083  0.419642E-08  0.140E-03    1.97      31.9  T
   8     -7.9706083 -0.840548E-08  0.244E-04    1.97     182.9  T
   9     -7.9706083 -0.230296E-10  0.606E-05    1.97     737.9  T
     SCC iter.                  ...        0 min,  0.001 sec
     gradient                   ...        0 min,  0.001 sec
 * total energy  :    -7.8744624 Eh     change       -0.3182571E-02 Eh
   gradient norm :     0.0277968 Eh/α   predicted    -0.2383231E-02 ( -25.12%)
   displ. norm   :     0.4845321 α      lambda       -0.5453303E-02
   maximum displ.:     0.4080077 α      in ANC's #1, #6, #8, ...

........................................................................
.............................. CYCLE   10 ..............................
........................................................................
   1     -7.9600352 -0.796004E+01  0.112E+00    1.99       0.0  T
   2     -7.9593554  0.679781E-03  0.657E-01    1.95       1.0  T
   3     -7.9526866  0.666884E-02  0.107E+00    2.15       1.0  T
   4     -7.9604396 -0.775308E-02  0.926E-02    2.00       1.0  T
   5     -7.9604624 -0.227433E-04  0.349E-02    2.00       1.3  T
   6     -7.9604624 -0.661623E-07  0.108E-02    2.00       4.2  T
   7     -7.9604627 -0.298565E-06  0.319E-03    2.00      14.0  T
   8     -7.9604628 -0.206728E-07  0.891E-04    2.00      50.2  T
   9     -7.9604628 -0.272545E-08  0.109E-04    2.00     411.4  T
     SCC iter.                  ...        0 min,  0.001 sec
     gradient                   ...        0 min,  0.001 sec
 * total energy  :    -7.8754646 Eh     change       -0.1002214E-02 Eh
   gradient norm :     0.0434188 Eh/α   predicted    -0.3366787E-02 ( 235.94%)
   displ. norm   :     0.1730580 α      lambda       -0.4415228E-02
   maximum displ.:     0.1375040 α      in ANC's #1, #6, #3, ...

........................................................................
.............................. CYCLE   11 ..............................
........................................................................
   1     -7.9707487 -0.797075E+01  0.471E-01    1.98       0.0  T
   2     -7.9707884 -0.397104E-04  0.298E-01    1.96       1.0  T
   3     -7.9703837  0.404672E-03  0.222E-01    2.00       1.0  T
   4     -7.9707484 -0.364641E-03  0.111E-01    1.95       1.0  T
   5     -7.9708189 -0.705646E-04  0.214E-02    1.96       2.1  T
   6     -7.9708190 -0.121917E-06  0.726E-03    1.96       6.2  T
   7     -7.9708191 -0.916799E-07  0.989E-04    1.96      45.2  T
   8     -7.9708191 -0.161312E-08  0.306E-04    1.96     146.0  T
     SCC iter.                  ...        0 min,  0.000 sec
     gradient                   ...        0 min,  0.001 sec
 * total energy  :    -7.8773961 Eh     change       -0.1931469E-02 Eh
   gradient norm :     0.0149001 Eh/α   predicted    -0.2273728E-02 (  17.72%)
   displ. norm   :     0.0714450 α      lambda       -0.5263470E-03
   maximum displ.:     0.0455997 α      in ANC's #1, #6, #7, ...

........................................................................
.............................. CYCLE   12 ..............................
........................................................................
   1     -7.9713286 -0.797133E+01  0.190E-01    1.99       0.0  T
   2     -7.9712569  0.716929E-04  0.138E-01    1.97       1.0  T
   3     -7.9712099  0.469871E-04  0.158E-01    2.00       1.0  T
   4     -7.9713561 -0.146228E-03  0.752E-03    1.98       5.9  T
   5     -7.9713562 -0.281897E-07  0.426E-03    1.98      10.5  T
   6     -7.9713562 -0.166911E-07  0.562E-04    1.98      79.6  T
   7     -7.9713562 -0.105286E-08  0.224E-04    1.98     199.2  T
     SCC iter.                  ...        0 min,  0.001 sec
     gradient                   ...        0 min,  0.001 sec
 * total energy  :    -7.8778175 Eh     change       -0.4214553E-03 Eh
   gradient norm :     0.0130506 Eh/α   predicted    -0.2645173E-03 ( -37.24%)
   displ. norm   :     0.1199013 α      lambda       -0.8144625E-03
   maximum displ.:     0.0682954 α      in ANC's #7, #1, #6, ...

........................................................................
.............................. CYCLE   13 ..............................
........................................................................
   1     -7.9712228 -0.797122E+01  0.322E-01    2.01       0.0  T
   2     -7.9712121  0.106370E-04  0.184E-01    2.00       1.0  T
   3     -7.9708147  0.397410E-03  0.232E-01    2.05       1.0  T
   4     -7.9712338 -0.419033E-03  0.130E-02    2.01       3.5  T
   5     -7.9712340 -0.213372E-06  0.221E-03    2.01      20.2  T
   6     -7.9712340 -0.149212E-07  0.844E-04    2.01      53.0  T
   7     -7.9712340 -0.910175E-09  0.231E-04    2.01     193.3  T
     SCC iter.                  ...        0 min,  0.001 sec
     gradient                   ...        0 min,  0.001 sec
 * total energy  :    -7.8782938 Eh     change       -0.4762987E-03 Eh
   gradient norm :     0.0095782 Eh/α   predicted    -0.4130878E-03 ( -13.27%)
   displ. norm   :     0.0461137 α      lambda       -0.2807864E-03
   maximum displ.:     0.0242530 α      in ANC's #7, #1, #5, ...

........................................................................
.............................. CYCLE   14 ..............................
........................................................................
   1     -7.9723204 -0.797232E+01  0.138E-01    2.03       0.0  T
   2     -7.9723161  0.430788E-05  0.804E-02    2.03       1.0  T
   3     -7.9722275  0.885720E-04  0.115E-01    2.01       1.0  T
   4     -7.9723260 -0.984821E-04  0.994E-03    2.03       4.5  T
   5     -7.9723261 -0.165036E-06  0.376E-03    2.03      11.9  T
   6     -7.9723261 -0.460381E-08  0.521E-04    2.03      85.8  T
   7     -7.9723261  0.145039E-09  0.266E-04    2.03     168.3  T
     SCC iter.                  ...        0 min,  0.000 sec
     gradient                   ...        0 min,  0.001 sec
 * total energy  :    -7.8785129 Eh     change       -0.2191117E-03 Eh
   gradient norm :     0.0057925 Eh/α   predicted    -0.1406913E-03 ( -35.79%)
   displ. norm   :     0.0685695 α      lambda       -0.2657501E-03
   maximum displ.:     0.0416434 α      in ANC's #1, #5, #7, ...

........................................................................
.............................. CYCLE   15 ..............................
........................................................................
   1     -7.9726427 -0.797264E+01  0.185E-01    2.04       0.0  T
   2     -7.9725755  0.671880E-04  0.135E-01    2.07       1.0  T
   3     -7.9725309  0.446014E-04  0.152E-01    2.03       1.0  T
   4     -7.9726700 -0.139056E-03  0.104E-02    2.05       4.3  T
   5     -7.9726701 -0.992474E-07  0.517E-03    2.05       8.6  T
   6     -7.9726701 -0.156551E-07  0.663E-04    2.05      67.4  T
   7     -7.9726701  0.737014E-09  0.444E-04    2.05     100.6  T
     SCC iter.                  ...        0 min,  0.000 sec
     gradient                   ...        0 min,  0.001 sec
 * total energy  :    -7.8786580 Eh     change       -0.1450675E-03 Eh
   gradient norm :     0.0010298 Eh/α   predicted    -0.1334997E-03 (  -7.97%)
   displ. norm   :     0.0193516 α      lambda       -0.5949222E-05
   maximum displ.:     0.0134212 α      in ANC's #1, #2, #4, ...

........................................................................
.............................. CYCLE   16 ..............................
........................................................................
   1     -7.9726439 -0.797264E+01  0.404E-02    2.05       0.0  T
   2     -7.9726441 -0.157047E-06  0.227E-02    2.05       2.0  T
   3     -7.9726412  0.285931E-05  0.205E-02    2.05       2.2  T
   4     -7.9726441 -0.293729E-05  0.439E-03    2.05      10.2  T
   5     -7.9726443 -0.118391E-06  0.149E-03    2.05      30.1  T
   6     -7.9726443 -0.461349E-08  0.133E-04    2.05     335.7  T
   7     -7.9726443 -0.113198E-10  0.305E-05    2.05    1468.2  T
     SCC iter.                  ...        0 min,  0.000 sec
     gradient                   ...        0 min,  0.001 sec
 * total energy  :    -7.8786597 Eh     change       -0.1729828E-05 Eh
   gradient norm :     0.0007646 Eh/α   predicted    -0.2975092E-05 (  71.99%)
   displ. norm   :     0.0076996 α      lambda       -0.1847428E-05
   maximum displ.:     0.0043249 α      in ANC's #2, #6, #1, ...

   *** GEOMETRY OPTIMIZATION CONVERGED AFTER 16 ITERATIONS ***

------------------------------------------------------------------------
 total energy gain   :        -0.0687216 Eh      -43.1234 kcal/mol
 total RMSD          :         0.9030935 a0        0.4779 Å
 total power (kW/mol):       -11.2767789 (step)-5484.3307 (real)
------------------------------------------------------------------------

 ANCopt (total)                0 d,  0 h,  0 min,  0.033 sec
 optimizer setup                ...        0 min,  0.000 sec (  0.191%)
 model hessian                  ...        0 min,  0.000 sec (  0.288%)
 ANC generation                 ...        0 min,  0.000 sec (  0.162%)
 coordinate transformation      ...        0 min,  0.000 sec (  0.113%)
 single point calculation       ...        0 min,  0.031 sec ( 95.302%)
 optimization log               ...        0 min,  0.000 sec (  1.217%)
 hessian update                 ...        0 min,  0.000 sec (  0.112%)
 rational function              ...        0 min,  0.000 sec (  1.073%)

================
 final structure:
================
5
 xtb: 6.2.2 (9d81278992624c895f80dd42a50cac0aa55982e2)
N        -0.42528976948275   -0.08767683011592   -0.00120731880860
C         0.84635025527634   -0.37341557079928   -0.09132268687812
C        -1.05306204637410    1.06842994016357    0.21088787096522
H        -1.03654487293450   -0.91473472977161   -0.11369584581641
H         1.66854643351501    0.30739719052324   -0.00466201946208

 Bond Distances (Angstroems)
 ---------------------------
N1-C2=1.3065         N1-C3=1.3325         N1-H4=1.0346         C2-N1=1.3065         C2-H5=1.0710         C3-N1=1.3325         
H4-N1=1.0346         H5-C2=1.0710         
 C  H  Rav=1.0710 sigma=0.0000  Rmin=1.0710  Rmax=1.0710     1
 N  H  Rav=1.0346 sigma=0.0000  Rmin=1.0346  Rmax=1.0346     1
 N  C  Rav=1.3195 sigma=0.0130  Rmin=1.3065  Rmax=1.3325     2

 selected bond angles (degree)
 --------------------
C3-N1-C2=131.25                H4-N1-C2=113.13                H4-N1-C3=115.63                H5-C2-N1=127.06                

 selected dihedral angles (degree)
 ---------------------------------
H5-C2-N1-C3=  0.13            H5-C2-N1-H4=180.34            
           -------------------------------------------------
          |                Final Singlepoint                |
           -------------------------------------------------

          ...................................................
          :                      SETUP                      :
          :.................................................:
          :  # basis functions                  14          :
          :  # atomic orbitals                  14          :
          :  # shells                            8          :
          :  # electrons                        15          :
          :  max. iterations                   250          :
          :  Hamiltonian                  GFN2-xTB          :
          :  restarted?                      false          :
          :  GBSA solvation                  false          :
          :  PC potential                    false          :
          :  electronic temp.          300.0000000     K    :
          :  accuracy                    1.0000000          :
          :  -> integral cutoff          0.2500000E+02      :
          :  -> integral neglect         0.1000000E-07      :
          :  -> SCF convergence          0.1000000E-05 Eh   :
          :  -> wf. convergence          0.1000000E-03 e    :
          :  Broyden damping             0.4000000          :
          ...................................................

 iter      E             dE          RMSdq      gap      omega  full diag
   1     -7.9726443 -0.797264E+01  0.833E-06    2.05       0.0  T
   2     -7.9726443  0.177636E-12  0.506E-06    2.05    8837.7  T
   3     -7.9726443  0.719425E-13  0.799E-06    2.05    5598.5  T

   *** convergence criteria satisfied after 3 iterations ***

         #    Occupation            Energy/Eh            Energy/eV
      -------------------------------------------------------------
         1        2.0000           -0.6791013             -18.4793
       ...           ...                  ...                  ...
         3        2.0000           -0.6019900             -16.3810
         4        2.0000           -0.5258709             -14.3097
         5        2.0000           -0.5252832             -14.2937
         6        2.0000           -0.4395977             -11.9621
         7        1.0000           -0.3650190              -9.9327
         8        1.0000           -0.3314048              -9.0180
         9        1.0000           -0.2947949              -8.0218 (HOMO)
        10                         -0.2193253              -5.9681 (LUMO)
        11                          0.0324564               0.8832
        12                          0.2073750               5.6430
        13                          0.2543920               6.9224
        14                          0.5065823              13.7848
      -------------------------------------------------------------
                  HL-Gap            0.0754696 Eh            2.0536 eV
             Fermi-level           -0.3296842 Eh           -8.9712 eV

 SCC (total)                   0 d,  0 h,  0 min,  0.002 sec
 SCC setup                      ...        0 min,  0.000 sec (  3.898%)
 Dispersion                     ...        0 min,  0.000 sec (  0.464%)
 integral evaluation            ...        0 min,  0.001 sec ( 39.482%)
 zeroth order Hamiltonian       ...        0 min,  0.000 sec (  0.718%)
 iterations                     ...        0 min,  0.000 sec ( 12.846%)
 molecular gradient             ...        0 min,  0.001 sec ( 39.553%)
 printout                       ...        0 min,  0.000 sec (  2.547%)

         :::::::::::::::::::::::::::::::::::::::::::::::::::::
         ::                     SUMMARY                     ::
         :::::::::::::::::::::::::::::::::::::::::::::::::::::
         :: total energy              -7.878659732632 Eh    ::
         :: gradient norm              0.000785491222 Eh/a0 ::
         :: HOMO-LUMO gap              2.053631767842 eV    ::
         ::.................................................::
         :: SCC energy                -7.972644256708 Eh    ::
         :: -> isotropic ES           -0.006485606634 Eh    ::
         :: -> anisotropic ES         -0.001306761547 Eh    ::
         :: -> anisotropic XC          0.006636057520 Eh    ::
         :: -> dispersion             -0.001576230749 Eh    ::
         :: repulsion energy           0.093984483714 Eh    ::
         :: add. restraining           0.000000000000 Eh    ::
         :::::::::::::::::::::::::::::::::::::::::::::::::::::

           ------------------------------------------------- 
          |                Numerical Hessian                |
           ------------------------------------------------- 
step length          :   0.00500
SCC accuracy         :   0.30000
Hessian scale factor :   1.00000
frozen atoms in %    :   0.00000    0
RMS gradient         :   0.00079
estimated CPU  time      0.00 min
estimated wall time      0.00 min

writing file <hessian>.

 projected vibrational frequencies (cm-1)
eigval :       -0.00     0.00     0.00     0.00     0.00     0.00
eigval :      503.04   578.08   729.28   923.99  1144.01  1244.49
eigval :     1345.70  2983.76  3121.40
           -------------------------------------------------
          |                Property Printout                |
           -------------------------------------------------

    * Orbital Energies and Occupations

         #    Occupation            Energy/Eh            Energy/eV
      -------------------------------------------------------------
         1        2.0000           -0.6791013             -18.4793
         2        2.0000           -0.6317872             -17.1918
         3        2.0000           -0.6019900             -16.3810
         4        2.0000           -0.5258709             -14.3097
         5        2.0000           -0.5252832             -14.2937
         6        2.0000           -0.4395977             -11.9621
         7        1.0000           -0.3650189              -9.9327
         8        1.0000           -0.3314048              -9.0180
         9        1.0000           -0.2947949              -8.0218 (HOMO)
        10                         -0.2193253              -5.9681 (LUMO)
        11                          0.0324564               0.8832
        12                          0.2073750               5.6430
        13                          0.2543920               6.9224
        14                          0.5065823              13.7848
      -------------------------------------------------------------
                  HL-Gap            0.0754696 Eh            2.0536 eV
             Fermi-level           -0.3296842 Eh           -8.9712 eV

     #   Z        covCN         q      C6AA      α(0)
     1   7 N      2.679     0.063    20.146     6.666
     2   6 C      1.853    -0.097    33.814     9.393
     3   6 C      0.926    -0.248    44.011    11.111
     4   1 H      0.859     0.196     1.125     1.661
     5   1 H      0.926     0.085     1.931     2.173

 Mol. C6AA /au·bohr⁶  :        374.911734
 Mol. C8AA /au·bohr⁸  :       9299.031457
 Mol. α(0) /au        :         31.005274


Wiberg/Mayer (AO) data.
largest (>0.10) Wiberg bond orders for each atom
          total WBO             WBO to atom ...
     1  N   3.637        C    2 1.430    C    3 1.332    H    4 0.870
     2  C   2.486        N    1 1.430    H    5 0.933    C    3 0.116
     3  C   1.453        N    1 1.332    C    2 0.116
     4  H   0.889        N    1 0.870
     5  H   0.952        C    2 0.933

MOs/occ written to file <molden.input>


molecular dipole:
                 x           y           z       tot (Debye)
 q only:        0.170      -0.733      -0.125
   full:        0.297      -0.975      -0.168       2.625
molecular quadrupole (traceless):
                xx          xy          yy          xz          yz          zz
 q only:        0.645       2.899      -0.628       0.455      -0.208      -0.017
  q+dip:        1.164       5.792      -1.300       0.922      -0.451       0.137
   full:        0.519       5.754      -1.662       0.973      -0.683       1.143

           -------------------------------------------------
          |                Geometry Summary                 |
           -------------------------------------------------

      molecular mass/u    :       40.0440565
   center of mass at/Å    :       -0.1948506       0.1625074       0.0324611
  moments of inertia/u·Å² :        0.6011998E+01   0.3679230E+02   0.4280427E+02
rotational constants/cm⁻¹ :        0.2803999E+01   0.4581837E+00   0.3938306E+00

 * 2 selected distances

     #   Z        #   Z                                     value/Å
     1   7 N      2   6 C                                 1.3064592 (max)
     1   7 N      4   1 H                                 1.0345585 (min)
Molecule has the following symmetry elements: (sigma) 
It seems to be the Cs point group

 * 2 distinct bonds (by element types)

   Z      Z             #   av. dist./Å        max./Å        min./Å
   1 H    7 N           1     1.0345585     1.0345585     1.0345585
   6 C    7 N           1     1.3064592     1.3064592     1.3064592

           -------------------------------------------------
          |               Frequency Printout                |
           -------------------------------------------------
 projected vibrational frequencies (cm-1)
eigval :       -0.00     0.00     0.00     0.00     0.00     0.00
eigval :      503.04   578.08   729.28   923.99  1144.01  1244.49
eigval :     1345.70  2983.76  3121.40
 reduced masses (amu)
   1: 12.00   2: 12.17   3: 11.13   4: 11.02   5: 12.08   6:  6.66   7:  9.64   8:  6.11
   9:  3.87  10:  4.62  11: 11.94  12:  2.81  13: 12.48  14:  1.73  15:  1.86
 IR intensities (amu)
   1:  0.07   2:  0.23   3:  0.32   4:  0.24   5:  0.11   6:  0.15   7:  0.32   8:  0.16
   9:  0.30  10:  0.39  11:  0.50  12:  0.16  13:  0.55  14:  0.02  15:  0.12
 Raman intensities (amu)
   1:  0.00   2:  0.00   3:  0.00   4:  0.00   5:  0.00   6:  0.00   7:  0.00   8:  0.00
   9:  0.00  10:  0.00  11:  0.00  12:  0.00  13:  0.00  14:  0.00  15:  0.00
 output can be read by thermo (or use thermo option).
 writing <g98.out> molden fake output.
 recommended (thermochemical) frequency scaling factor: 1.0
           -------------------------------------------------
          |             Thermodynamic Functions             |
           -------------------------------------------------

cs  symmetry found (for desy threshold:  0.10E+00) used in thermo

          ...................................................
          :                      SETUP                      :
          :.................................................:
          :  # frequencies                           9      :
          :  # imaginary freq.                       0      :
          :  linear?                             false      :
          :  only rotor calc.                    false      :
          :  symmetry                               cs      :
          :  rotational number                       1      :
          :  scaling factor                  1.0000000      :
          :  rotor cutoff                   50.0000000 cm⁻¹ :
          :  imag. cutoff                  -20.0000000 cm⁻¹ :
          :.................................................:

    mode    ω/cm⁻¹     T·S(HO)/kcal·mol⁻¹    T·S(FR)/kcal·mol⁻¹   T·S(vib)
   ------------------------------------------------------------------------
   ------------------------------------------------------------------------

   temp. (K)  partition function   enthalpy   heat capacity  entropy
                                   cal/mol     cal/K/mol   cal/K/mol   J/K/mol
 298.15  VIB   1.23                  369.797      4.114      1.649
         ROT  0.743E+04              888.752      2.981     20.695
         INT  0.913E+04             1258.549      7.095     22.344
         TR   0.245E+27             1481.254      4.968     36.973
         TOT                        2739.8034    12.0629    59.3168   248.1815

   temp. (K)  partition function   enthalpy   heat capacity  entropy
                                   cal/mol     cal/K/mol   cal/K/mol   J/K/mol
 120.00  VIB   1.00                    5.458      0.297      0.053
         ROT  0.190E+04              357.707      2.981     17.982
         INT  0.190E+04              363.165      3.277     18.034
         TR   0.626E+26              596.178      4.968     32.454
         TOT                         959.3430     8.2456    50.4883   211.2431

   temp. (K)  partition function   enthalpy   heat capacity  entropy
                                   cal/mol     cal/K/mol   cal/K/mol   J/K/mol
 100.00  VIB   1.00                    1.501      0.115      0.017
         ROT  0.144E+04              298.089      2.981     17.438
         INT  0.145E+04              299.590      3.096     17.455
         TR   0.476E+26              496.815      4.968     31.549
         TOT                         796.4053     8.0643    49.0039   205.0322

   temp. (K)  partition function   enthalpy   heat capacity  entropy
                                   cal/mol     cal/K/mol   cal/K/mol   J/K/mol
  80.00  VIB   1.00                    0.224      0.026      0.003
         ROT  0.103E+04              238.471      2.981     16.773
         INT  0.103E+04              238.695      3.007     16.776
         TR   0.341E+26              397.452      4.968     30.440
         TOT                         636.1474     7.9755    47.2167   197.5547

   temp. (K)  partition function   enthalpy   heat capacity  entropy
                                   cal/mol     cal/K/mol   cal/K/mol   J/K/mol
  60.00  VIB   1.00                    0.010      0.002      0.000
         ROT   671.                  178.853      2.981     15.916
         INT   671.                  178.863      2.983     15.916
         TR   0.221E+26              298.089      4.968     29.012
         TOT                         476.9523     7.9511    44.9276   187.9772

   temp. (K)  partition function   enthalpy   heat capacity  entropy
                                   cal/mol     cal/K/mol   cal/K/mol   J/K/mol
  40.00  VIB   1.00                    0.000      0.000     -0.000
         ROT   365.                  119.236      2.981     14.707
         INT   365.                  119.236      2.981     14.707
         TR   0.120E+26              198.726      4.968     26.999
         TOT                         317.9616     7.9490    41.7053   174.4950

   temp. (K)  partition function   enthalpy   heat capacity  entropy
                                   cal/mol     cal/K/mol   cal/K/mol   J/K/mol
  20.00  VIB   1.00                    0.000      0.000     -0.000
         ROT   129.                   59.618      2.981     12.641
         INT   129.                   59.618      2.981     12.640
         TR   0.426E+25               99.363      4.968     23.557
         TOT                         158.9808     7.9490    36.1970   151.4482

   temp. (K)  partition function   enthalpy   heat capacity  entropy
                                   cal/mol     cal/K/mol   cal/K/mol   J/K/mol
  10.00  VIB   1.00                    0.000      0.000     -0.000
         ROT   45.7                   29.809      2.981     10.575
         INT   45.7                   29.809      2.981     10.574
         TR   0.151E+25               49.681      4.968     20.115
         TOT                          79.4904     7.9490    30.6887   128.4015

       T/K    H(0)-H(T)+PV         H(T)/Eh          T*S/Eh         G(T)/Eh
   ------------------------------------------------------------------------
    298.15    0.436615E-02    0.330113E-01    0.281833E-01    0.482796E-02
    120.00    0.152881E-02    0.301739E-01    0.965499E-02    0.205189E-01
    100.00    0.126915E-02    0.299143E-01    0.780926E-02    0.221050E-01
     80.00    0.101377E-02    0.296589E-01    0.601957E-02    0.236393E-01
     60.00    0.760072E-03    0.294052E-01    0.429580E-02    0.251094E-01
     40.00    0.506704E-03    0.291518E-01    0.265847E-02    0.264934E-01
     20.00    0.253352E-03    0.288985E-01    0.115367E-02    0.277448E-01
     10.00    0.126676E-03    0.287718E-01    0.489055E-03    0.282827E-01 (used)
   ------------------------------------------------------------------------

         :::::::::::::::::::::::::::::::::::::::::::::::::::::
         ::                  THERMODYNAMIC                  ::
         :::::::::::::::::::::::::::::::::::::::::::::::::::::
         :: total free energy          -7.850376982747 Eh   ::
         ::.................................................::
         :: total energy               -7.878659732602 Eh   ::
         :: zero point energy           0.028645129316 Eh   ::
         :: G(RRHO) w/o ZPVE           -0.000362379461 Eh   ::
         :: G(RRHO) contrib.            0.028282749855 Eh   ::
         :::::::::::::::::::::::::::::::::::::::::::::::::::::

optimized geometry written to: xtbopt.xyz


           -------------------------------------------------
          | TOTAL ENERGY               -7.878659732602 Eh   |
          | TOTAL ENTHALPY             -7.849887927270 Eh   |
          | TOTAL FREE ENERGY          -7.850376982747 Eh   |
          | GRADIENT NORM               0.000785487547 Eh/α |
          | HOMO-LUMO GAP               2.053631776617 eV   |
           -------------------------------------------------

------------------------------------------------------------------------
 * finished run on 2020/05/12 at 11:44:47.266     
------------------------------------------------------------------------
 total:
 * wall-time:     0 d,  0 h,  0 min,  0.108 sec
 *  cpu-time:     0 d,  0 h,  0 min,  0.107 sec
 * ratio c/w:     0.999 speedup
 SCF:
 * wall-time:     0 d,  0 h,  0 min,  0.003 sec
 *  cpu-time:     0 d,  0 h,  0 min,  0.003 sec
 * ratio c/w:     1.000 speedup
 ANC optimizer:
 * wall-time:     0 d,  0 h,  0 min,  0.035 sec
 *  cpu-time:     0 d,  0 h,  0 min,  0.035 sec
 * ratio c/w:     0.999 speedup
 numerical hessian:
 * wall-time:     0 d,  0 h,  0 min,  0.054 sec
 *  cpu-time:     0 d,  0 h,  0 min,  0.053 sec
 * ratio c/w:     0.999 speedup

