$hessian                                                                        
        0.6878448257  -0.0157202781   0.0332363705  -0.2197560476   0.1820198013
       -0.0107233404  -0.4680887781  -0.1662995232  -0.0225130302
       -0.0157202781   0.1423364525  -0.0008436788   0.1097948541  -0.1510569848
        0.0053932136  -0.0940745760   0.0087205324  -0.0045495348
        0.0332363705  -0.0008436788   0.0016060171  -0.0106805674   0.0088821149
       -0.0005211961  -0.0225558032  -0.0080384361  -0.0010848210
       -0.2197560476   0.1097948541  -0.0106805674   0.1576604601  -0.1079346498
        0.0076798737   0.0620955875  -0.0018602043   0.0030006937
        0.1820198013  -0.1510569848   0.0088821149  -0.1079346498   0.5392331250
       -0.0055332399  -0.0740851515  -0.3881761402  -0.0033488751
       -0.0107233404   0.0053932136  -0.0005211961   0.0076798737  -0.0055332399
        0.0003742612   0.0030434667   0.0001400262   0.0001469349
       -0.4680887781  -0.0940745760  -0.0225558032   0.0620955875  -0.0740851515
        0.0030434667   0.4059931906   0.1681597275   0.0195123365
       -0.1662995232   0.0087205324  -0.0080384361  -0.0018602043  -0.3881761402
        0.0001400262   0.1681597275   0.3794556078   0.0078984099
       -0.0225130302  -0.0045495348  -0.0010848210   0.0030006937  -0.0033488751
        0.0001469349   0.0195123365   0.0078984099   0.0009378861
