3
 energy: -8.871463071098 gnorm: 0.110143688524 xtb: 6.2.2 (9d81278992624c895f80dd42a50cac0aa55982e2)
C         0.80188200000000   -0.11596800000000    0.03880700000000
O        -0.25535900000000    0.73484900000000   -0.01277000000000
N        -0.54652300000000   -0.61888100000000   -0.02603700000000
3
 energy: -8.878308009869 gnorm: 0.050182689785 xtb: 6.2.2 (9d81278992624c895f80dd42a50cac0aa55982e2)
C         0.76808752755759   -0.12417830455876    0.03717925036237
O        -0.24999573582756    0.73943592629340   -0.01251361045715
N        -0.51809179173003   -0.61525762173464   -0.02466563990521
3
 energy: -8.879660282560 gnorm: 0.027052449373 xtb: 6.2.2 (9d81278992624c895f80dd42a50cac0aa55982e2)
C         0.73907920193127   -0.13684872122812    0.03578534974374
O        -0.25010061187478    0.74752145634494   -0.01252344922079
N        -0.48897859005649   -0.61067273511682   -0.02326190052295
3
 energy: -8.879933765812 gnorm: 0.006474219477 xtb: 6.2.2 (9d81278992624c895f80dd42a50cac0aa55982e2)
C         0.74867159480773   -0.13532018378987    0.03624785168845
O        -0.25238164215236    0.74640577046549   -0.01263298625065
N        -0.49628995265538   -0.61108558667562   -0.02361486543779
3
 energy: -8.879967923190 gnorm: 0.004108150105 xtb: 6.2.2 (9d81278992624c895f80dd42a50cac0aa55982e2)
C         0.74897435559150   -0.13728478364214    0.03626363747176
O        -0.25425950616295    0.74729605137515   -0.01272423046600
N        -0.49471484942854   -0.61001126773301   -0.02353940700577
3
 energy: -8.879991869464 gnorm: 0.000635081246 xtb: 6.2.2 (9d81278992624c895f80dd42a50cac0aa55982e2)
C         0.75011611122944   -0.14058291637300    0.03632074179248
O        -0.25773856261164    0.74836664846755   -0.01289293398326
N        -0.49237754861780   -0.60778373209456   -0.02342780780923
3
 energy: -8.879992189538 gnorm: 0.000172204469 xtb: 6.2.2 (9d81278992624c895f80dd42a50cac0aa55982e2)
C         0.75041292548007   -0.14071876878111    0.03633516093634
O        -0.25803529211251    0.74812885871463   -0.01290712850144
N        -0.49237763336756   -0.60741008993352   -0.02342803243490
