3
 energy: -8.879992189619 gnorm: 0.000171206695 xtb: 6.2.2 (9d81278992624c895f80dd42a50cac0aa55982e2)
C         0.75041231549829   -0.14072263451570    0.03633278710139
O        -0.25803141997291    0.74813018724591   -0.01290753351944
N        -0.49238089552538   -0.60740755273021   -0.02342525358195
