[Molden Format]
[Title]
[Atoms] AU
C      1     6  0.14180736252693E+01 -0.26592721409779E+00  0.68659010595783E-01
O      2     8 -0.48760867005681E+00  0.14137610282912E+01 -0.24391701033101E-01
N      3     7 -0.93046495521252E+00 -0.11478338141934E+01 -0.44267309562682E-01
[GTO]
           1 0
 s           4   1.0000000000000000     
   51.049363095579913      -0.16312063210127389     
   8.7911227406887544      -0.19911024581000730     
  0.70640422258929825       0.31882047753655751     
  0.26922813413411617       0.12706504184240380     
 p           4   1.0000000000000000     
   5.8263656140800002       0.73716451545209605     
   1.5106896018720002       0.68216371614850257     
  0.53256483288000001       0.35783053929253711     
  0.21202323690600003        5.3983030275847881E-002

           2 0
 s           4   1.0000000000000000     
   69.137961906196551      -0.20478756370077797     
   11.906129132707308      -0.24997023136827334     
  0.95670827744340703       0.40025880240639616     
  0.36462520496073686       0.15952206667693555     
 p           4   1.0000000000000000     
   8.2124193257781641        1.1321556799186829     
   2.1293576997098116        1.0476840782254817     
  0.75066448202360914       0.54956508217158984     
  0.29885246543283073        8.2908486592766617E-002

           3 0
 s           4   1.0000000000000000     
   63.594024466941008      -0.19234388414721629     
   10.951417231523665      -0.23478107924953728     
  0.87999310257376984       0.37593753901700888     
  0.33538715296521110       0.14982889271862770     
 p           4   1.0000000000000000     
   7.2965040481495080       0.97658666315667420     
   1.8918745450712575       0.90372226730345739     
  0.66694432110824120       0.47404958461536373     
  0.26552202674130870        7.1516067715011844E-002

[MO]
Sym=     1a
Ene=  -0.83417502671013621     
Spin= Alpha
Occup=     2.00000000
           1 -0.24046624021109445     
           2  0.14623625715429006     
           3  -6.9268707499851145E-002
           4   7.1051110687226030E-003
           5 -0.56349565462177587     
           6  -7.4772770449839321E-002
           7  0.22873687289345193     
           8  -3.7474468058239629E-003
           9 -0.24153750958597553     
          10  -9.4643787672420737E-002
          11 -0.21075741805695183     
          12  -4.4470549615273636E-003
Sym=     2a
Ene=  -0.71420020801810680     
Spin= Alpha
Occup=     2.00000000
           1  0.23381308291773653     
           2  -8.5805023341901959E-002
           3 -0.16609208416684923     
           4  -4.0465328082434394E-003
           5 -0.68302175925009756     
           6   8.9608772689873009E-002
           7 -0.41827339917974066     
           8   4.5763518621233035E-003
           9  0.34136135087051489     
          10  0.17280472680293738     
          11  -2.5659036353926693E-002
          12   8.3627057367117539E-003
Sym=     3a
Ene=  -0.68703021589763202     
Spin= Alpha
Occup=     2.00000000
           1 -0.35733893684048035     
           2  -4.7130474962763610E-002
           3 -0.17405905939915711     
           4  -2.1736166307067132E-003
           5   4.5896254325173982E-002
           6 -0.65282735170788142     
           7 -0.18115889748505246     
           8  -3.1428248004073546E-002
           9  0.28689060910008690     
          10 -0.21361873721778821     
          11  0.19279106648483599     
          12  -1.0433281270132433E-002
Sym=     4a
Ene=  -0.65165965506823420     
Spin= Alpha
Occup=     2.00000000
           1  -2.1887959188986650E-008
           2  -1.6104651324629560E-002
           3   1.9742058169641631E-004
           4  0.33338772719163740     
           5  -5.0261406459818155E-009
           6  -3.4075705037059950E-002
           7   4.1775082658876585E-004
           8  0.70541210389309128     
           9  -9.8262096198779049E-009
          10  -2.0597361414604689E-002
          11   2.5253501864040868E-004
          12  0.42639323142049379     
Sym=     5a
Ene=  -0.57907697393121649     
Spin= Alpha
Occup=     2.00000000
           1  0.15165828463486872     
           2  -2.6592961766831100E-002
           3 -0.36483619272827672     
           4  -1.0685293569604899E-003
           5  0.25126987908095522     
           6 -0.15367147126513792     
           7  0.50792606848757471     
           8  -7.7240582073558788E-003
           9  0.39446399605450017     
          10  0.22516596262645022     
          11 -0.44487644372532154     
          12   1.1140330386564420E-002
Sym=     6a
Ene=  -0.51971904611174180     
Spin= Alpha
Occup=     2.00000000
           1 -0.41234293495755553     
           2 -0.24435051415774384     
           3  0.31029532108077745     
           4  -1.1987359423842908E-002
           5  -4.4539652263458039E-002
           6  0.40660477350147173     
           7   3.9704353104961190E-002
           8   1.9618017652610058E-002
           9  0.54667998266911977     
          10 -0.37549269703619942     
          11 -0.30308410265923963     
          12  -1.7959132484197549E-002
Sym=     7a
Ene=  -0.47251051325026139     
Spin= Alpha
Occup=     1.99999805
           1 -0.55544791344647426     
           2 -0.60099723873467703     
           3 -0.11691893790192062     
           4  -2.8962515707250867E-002
           5   7.9124103209162865E-003
           6   9.3080757813791395E-002
           7   6.5771525307834573E-003
           8   4.4923178113031965E-003
           9 -0.29006679924641560     
          10  0.51105721758032874     
          11   4.2505592263505761E-002
          12   2.4662113585412340E-002
Sym=     8a
Ene=  -0.44752665247815543     
Spin= Alpha
Occup=     1.00000195
           1  -7.4764170966424757E-008
           2   1.1455202803200792E-002
           3  -1.4048041564587827E-004
           4 -0.23714003799174549     
           5   1.5027349507311856E-009
           6  -3.3600859698468474E-002
           7   4.1193270968430438E-004
           8  0.69558287333335012     
           9  -1.0102935551955720E-007
          10   3.6840408461157964E-002
          11  -4.5161829308389703E-004
          12 -0.76264332928233791     
Sym=     9a
Ene=  -0.33977033757591268     
Spin= Alpha
Occup=     0.00000000
           1  -7.8397653966007318E-009
           2   4.5499865517429620E-002
           3  -5.5781215240445665E-004
           4 -0.94190857678172335     
           5   6.8968271520488926E-010
           6  -1.1258730724104689E-002
           7   1.3802682473754784E-004
           8  0.23307084303140035     
           9   1.6573049759918085E-008
          10  -2.5584712826032519E-002
          11   3.1364663495095965E-004
          12  0.52963787198222601     
Sym=    10a
Ene=  -0.15138703709576212     
Spin= Alpha
Occup=     0.00000000
           1   1.7933526656229749E-003
           2   8.1049490606240351E-002
           3  0.60804827325883870     
           4   3.5550890905728309E-003
           5  0.15962697967760001     
           6 -0.51985883845344671     
           7 -0.49505075179557029     
           8  -2.4819144836945948E-002
           9 -0.14975810785780050     
          10  0.36092903946006294     
          11 -0.75795072332612146     
          12   1.7883922460774953E-002
Sym=    11a
Ene=    1.9037185694481236E-003
Spin= Alpha
Occup=     0.00000000
           1 -0.10620058467781909     
           2   4.3935679489802565E-002
           3 -0.74165940595479440     
           4   2.5615847363887295E-003
           5  0.58877548777215338     
           6  0.35630291355281668     
           7 -0.67272003167739436     
           8   1.7609981261885718E-002
           9 -0.48139066036893829     
          10 -0.41592261084806886     
          11 -0.48796152698047873     
          12  -1.9802595315039490E-002
Sym=    12a
Ene=   0.31475069098084246     
Spin= Alpha
Occup=     0.00000000
           1  0.81510615081674331     
           2  -1.0004599207777471     
           3   5.3441264328918978E-002
           4  -4.8359906644384068E-002
           5 -0.30773004415667865     
           6 -0.39622142852948145     
           7  0.20934179975636563     
           8  -1.9263864674946344E-002
           9 -0.56309845335014919     
          10 -0.67895976175707839     
          11 -0.22211031150360500     
          12  -3.2666323695785593E-002
