$hessian                                                                        
        1.4446100794  -0.4201878433  -0.0262363950  -1.0178676711   0.2888487720
        0.0190428232  -0.1062956756   0.0302492468   0.0016474588   0.0323562832
       -0.0093033464  -0.0005346170  -0.3528030159   0.1103931710   0.0060807299
       -0.4201878433   0.1318017575   0.0074965938   0.2907536186  -0.0853252673
       -0.0049700238   0.0287284045  -0.0110771478  -0.0009195662  -0.0082351113
        0.0037535877   0.0002955246   0.1089409315  -0.0391529300  -0.0019025284
       -0.0262363950   0.0074965938   0.0048012196   0.0185098183  -0.0064599724
        0.0095532166   0.0021285117   0.0008541304  -0.0148370745  -0.0006535009
       -0.0002927245   0.0053124894   0.0062515659  -0.0015980272  -0.0048298511
       -1.0178676711   0.2907536186   0.0185098183   1.5311777058  -0.4326307776
       -0.0275630755  -0.3812280730   0.1032832544   0.0062191799  -0.1133285829
        0.0371709247   0.0025065929  -0.0187533788   0.0014229800   0.0003274844
        0.2888487720  -0.0853252673  -0.0064599724  -0.4326307776   0.1657512118
        0.0088530797   0.1037495499  -0.0728381200  -0.0025223681   0.0366141246
        0.0013600895  -0.0004085391   0.0034183311  -0.0089479140   0.0005378000
        0.0190428232  -0.0049700238   0.0095532166  -0.0275630755   0.0088530797
        0.0318431901   0.0063732266  -0.0026310094  -0.0350877030   0.0022438413
       -0.0006610559   0.0088294413  -0.0000968156  -0.0005909906  -0.0151381451
       -0.1062956756   0.0287284045   0.0021285117  -0.3812280730   0.1037495499
        0.0063732266   1.1745165644  -0.3316311079  -0.0206931775  -0.6963073362
        0.1983478152   0.0123475736   0.0093145203   0.0008053383  -0.0001561345
        0.0302492468  -0.0110771478   0.0008541304   0.1032832544  -0.0728381200
       -0.0026310094  -0.3316311079   0.1536335159   0.0065222293   0.1981148885
       -0.0789567239  -0.0039095849  -0.0000162817   0.0092384758  -0.0008357654
        0.0016474588  -0.0009195662  -0.0148370745   0.0062191799  -0.0025223681
       -0.0350877030  -0.0206931775   0.0065222293   0.0518195593   0.0125473115
       -0.0035763574  -0.0184314091   0.0002792272   0.0004960624   0.0165366273
        0.0323562832  -0.0082351113  -0.0006535009  -0.1133285829   0.0366141246
        0.0022438413  -0.6963073362   0.1981148885   0.0125473115   0.7810099745
       -0.2267371676  -0.0142536386  -0.0037303386   0.0002432658   0.0001159867
       -0.0093033464   0.0037535877  -0.0002927245   0.0371709247   0.0013600895
       -0.0006610559   0.1983478152  -0.0789567239  -0.0035763574  -0.2267371676
        0.0759177439   0.0042149522   0.0005217741  -0.0020746971   0.0003151856
       -0.0005346170   0.0002955246   0.0053124894   0.0025065929  -0.0004085391
        0.0088294413   0.0123475736  -0.0039095849  -0.0184314091  -0.0142536386
        0.0042149522   0.0083290532  -0.0000659109  -0.0001923528  -0.0040395748
       -0.3528030159   0.1089409315   0.0062515659  -0.0187533788   0.0034183311
       -0.0000968156   0.0093145203  -0.0000162817   0.0002792272  -0.0037303386
        0.0005217741  -0.0000659109   0.3659722130  -0.1128647551  -0.0063680666
        0.1103931710  -0.0391529300  -0.0015980272   0.0014229800  -0.0089479140
       -0.0005909906   0.0008053383   0.0092384758   0.0004960624   0.0002432658
       -0.0020746971  -0.0001923528  -0.1128647551   0.0409370653   0.0018853082
        0.0060807299  -0.0019025284  -0.0048298511   0.0003274844   0.0005378000
       -0.0151381451  -0.0001561345  -0.0008357654   0.0165366273   0.0001159867
        0.0003151856  -0.0040395748  -0.0063680666   0.0018853082   0.0074709436
