 Entering Gaussian System, Link 0=g16
 Initial command:
 /applis/site/cecic/gaussian16/B.01/nehalem/g16/l1.exe "/bettik/tinaccil/g16/12754512_S/Gau-213453.inp" -scrdir="/bettik/tinaccil/g16/12754512_S/"
 Entering Link 1 = /applis/site/cecic/gaussian16/B.01/nehalem/g16/l1.exe PID=    213455.
  
 Copyright (c) 1988-2017, Gaussian, Inc.  All Rights Reserved.
  
 This is part of the Gaussian(R) 16 program.  It is based on
 the Gaussian(R) 09 system (copyright 2009, Gaussian, Inc.),
 the Gaussian(R) 03 system (copyright 2003, Gaussian, Inc.),
 the Gaussian(R) 98 system (copyright 1998, Gaussian, Inc.),
 the Gaussian(R) 94 system (copyright 1995, Gaussian, Inc.),
 the Gaussian 92(TM) system (copyright 1992, Gaussian, Inc.),
 the Gaussian 90(TM) system (copyright 1990, Gaussian, Inc.),
 the Gaussian 88(TM) system (copyright 1988, Gaussian, Inc.),
 the Gaussian 86(TM) system (copyright 1986, Carnegie Mellon
 University), and the Gaussian 82(TM) system (copyright 1983,
 Carnegie Mellon University). Gaussian is a federally registered
 trademark of Gaussian, Inc.
  
 This software contains proprietary and confidential information,
 including trade secrets, belonging to Gaussian, Inc.
  
 This software is provided under written license and may be
 used, copied, transmitted, or stored only in accord with that
 written license.
  
 The following legend is applicable only to US Government
 contracts under FAR:
  
                    RESTRICTED RIGHTS LEGEND
  
 Use, reproduction and disclosure by the US Government is
 subject to restrictions as set forth in subparagraphs (a)
 and (c) of the Commercial Computer Software - Restricted
 Rights clause in FAR 52.227-19.
  
 Gaussian, Inc.
 340 Quinnipiac St., Bldg. 40, Wallingford CT 06492
  
  
 ---------------------------------------------------------------
 Warning -- This program may not be used in any manner that
 competes with the business of Gaussian, Inc. or will provide
 assistance to any competitor of Gaussian, Inc.  The licensee
 of this program is prohibited from giving any competitor of
 Gaussian, Inc. access to this program.  By using this program,
 the user acknowledges that Gaussian, Inc. is engaged in the
 business of creating and licensing software in the field of
 computational chemistry and represents and warrants to the
 licensee that it is not a competitor of Gaussian, Inc. and that
 it will not use this program in any manner prohibited above.
 ---------------------------------------------------------------
  

 Cite this work as:
 Gaussian 16, Revision B.01,
 M. J. Frisch, G. W. Trucks, H. B. Schlegel, G. E. Scuseria, 
 M. A. Robb, J. R. Cheeseman, G. Scalmani, V. Barone, 
 G. A. Petersson, H. Nakatsuji, X. Li, M. Caricato, A. V. Marenich, 
 J. Bloino, B. G. Janesko, R. Gomperts, B. Mennucci, H. P. Hratchian, 
 J. V. Ortiz, A. F. Izmaylov, J. L. Sonnenberg, D. Williams-Young, 
 F. Ding, F. Lipparini, F. Egidi, J. Goings, B. Peng, A. Petrone, 
 T. Henderson, D. Ranasinghe, V. G. Zakrzewski, J. Gao, N. Rega, 
 G. Zheng, W. Liang, M. Hada, M. Ehara, K. Toyota, R. Fukuda, 
 J. Hasegawa, M. Ishida, T. Nakajima, Y. Honda, O. Kitao, H. Nakai, 
 T. Vreven, K. Throssell, J. A. Montgomery, Jr., J. E. Peralta, 
 F. Ogliaro, M. J. Bearpark, J. J. Heyd, E. N. Brothers, K. N. Kudin, 
 V. N. Staroverov, T. A. Keith, R. Kobayashi, J. Normand, 
 K. Raghavachari, A. P. Rendell, J. C. Burant, S. S. Iyengar, 
 J. Tomasi, M. Cossi, J. M. Millam, M. Klene, C. Adamo, R. Cammi, 
 J. W. Ochterski, R. L. Martin, K. Morokuma, O. Farkas, 
 J. B. Foresman, and D. J. Fox, Gaussian, Inc., Wallingford CT, 2016.
 
 ******************************************
 Gaussian 16:  ES64L-G16RevB.01 20-Dec-2017
                 5-Oct-2020 
 ******************************************
 %nosave
 %nproc=8
 Will use up to    8 processors via shared memory.
 %mem=2gb
 %chk=input
 ------------------------
 #P ROCCSD(T)/aug-cc-pvtz
 ------------------------
 1/38=1,172=1/1;
 2/12=2,17=6,18=5,40=1/2;
 3/5=16,6=1,7=10,11=2,25=1,30=1,116=101/1,2,3;
 4//1;
 5/5=2,38=5/2;
 8/5=-1,6=4,9=120000,10=1/1,4;
 9/5=7,14=2/13;
 6/7=2,8=2,9=2,10=2/1;
 99/5=1,9=1/99;
 Leave Link    1 at Mon Oct  5 21:36:59 2020, MaxMem=   268435456 cpu:               0.8 elap:               0.2
 (Enter /applis/site/cecic/gaussian16/B.01/nehalem/g16/l101.exe)
 -----
 Title
 -----
 Symbolic Z-matrix:
 Charge =  1 Multiplicity = 4
 S
 
 ITRead=  0
 MicOpt= -1
 NAtoms=      1 NQM=        1 NQMF=       0 NMMI=      0 NMMIF=      0
                NMic=       0 NMicF=      0.
                    Isotopes and Nuclear Properties:
 (Nuclear quadrupole moments (NQMom) in fm**2, nuclear magnetic moments (NMagM)
  in nuclear magnetons)

  Atom         1
 IAtWgt=          32
 AtmWgt=  31.9720718
 NucSpn=           0
 AtZEff=  -0.0000000
 NQMom=    0.0000000
 NMagM=    0.0000000
 AtZNuc=  16.0000000
 Leave Link  101 at Mon Oct  5 21:36:59 2020, MaxMem=   268435456 cpu:               1.7 elap:               0.3
 (Enter /applis/site/cecic/gaussian16/B.01/nehalem/g16/l202.exe)
                          Input orientation:                          
 ---------------------------------------------------------------------
 Center     Atomic      Atomic             Coordinates (Angstroms)
 Number     Number       Type             X           Y           Z
 ---------------------------------------------------------------------
      1         16           0        0.000000    0.000000    0.000000
 ---------------------------------------------------------------------
 Stoichiometry    S(1+,4)
 Framework group  OH[O(S)]
 Deg. of freedom     0
 Full point group                 OH      NOp  48
 Largest Abelian subgroup         D2H     NOp   8
 Largest concise Abelian subgroup C1      NOp   1
                         Standard orientation:                         
 ---------------------------------------------------------------------
 Center     Atomic      Atomic             Coordinates (Angstroms)
 Number     Number       Type             X           Y           Z
 ---------------------------------------------------------------------
      1         16           0        0.000000    0.000000    0.000000
 ---------------------------------------------------------------------
 Leave Link  202 at Mon Oct  5 21:36:59 2020, MaxMem=   268435456 cpu:               0.0 elap:               0.0
 (Enter /applis/site/cecic/gaussian16/B.01/nehalem/g16/l301.exe)
 Standard basis: Aug-CC-pVTZ (5D, 7F)
 Ernie: Thresh=  0.10000D-02 Tol=  0.10000D-05 Strict=F.
 Ernie:  13 primitive shells out of 64 were deleted.
 There are    15 symmetry adapted cartesian basis functions of AG  symmetry.
 There are     3 symmetry adapted cartesian basis functions of B1G symmetry.
 There are     3 symmetry adapted cartesian basis functions of B2G symmetry.
 There are     3 symmetry adapted cartesian basis functions of B3G symmetry.
 There are     2 symmetry adapted cartesian basis functions of AU  symmetry.
 There are    11 symmetry adapted cartesian basis functions of B1U symmetry.
 There are    11 symmetry adapted cartesian basis functions of B2U symmetry.
 There are    11 symmetry adapted cartesian basis functions of B3U symmetry.
 There are    12 symmetry adapted basis functions of AG  symmetry.
 There are     3 symmetry adapted basis functions of B1G symmetry.
 There are     3 symmetry adapted basis functions of B2G symmetry.
 There are     3 symmetry adapted basis functions of B3G symmetry.
 There are     2 symmetry adapted basis functions of AU  symmetry.
 There are     9 symmetry adapted basis functions of B1U symmetry.
 There are     9 symmetry adapted basis functions of B2U symmetry.
 There are     9 symmetry adapted basis functions of B3U symmetry.
    50 basis functions,   114 primitive gaussians,    59 cartesian basis functions
     9 alpha electrons        6 beta electrons
       nuclear repulsion energy         0.0000000000 Hartrees.
 IExCor=    0 DFT=F Ex=HF Corr=None ExCW=0 ScaHFX=  1.000000
 ScaDFX=  1.000000  1.000000  1.000000  1.000000 ScalE2=  1.000000  1.000000
 IRadAn=      5 IRanWt=     -1 IRanGd=            0 ICorTp=0 IEmpDi=  4
 NAtoms=    1 NActive=    1 NUniq=    1 SFac= 1.00D+00 NAtFMM=   60 NAOKFM=F Big=F
 Integral buffers will be    131072 words long.
 Raffenetti 2 integral format.
 Two-electron integral symmetry is turned on.
 Leave Link  301 at Mon Oct  5 21:36:59 2020, MaxMem=   268435456 cpu:               0.7 elap:               0.1
 (Enter /applis/site/cecic/gaussian16/B.01/nehalem/g16/l302.exe)
 NPDir=0 NMtPBC=     1 NCelOv=     1 NCel=       1 NClECP=     1 NCelD=      1
         NCelK=      1 NCelE2=     1 NClLst=     1 CellRange=     0.0.
 One-electron integrals computed using PRISM.
 One-electron integral symmetry used in STVInt
 NBasis=    50 RedAO= T EigKep=  1.59D-02  NBF=    12     3     3     3     2     9     9     9
 NBsUse=    50 1.00D-06 EigRej= -1.00D+00 NBFU=    12     3     3     3     2     9     9     9
 Leave Link  302 at Mon Oct  5 21:36:59 2020, MaxMem=   268435456 cpu:               1.7 elap:               0.3
 (Enter /applis/site/cecic/gaussian16/B.01/nehalem/g16/l303.exe)
 DipDrv:  MaxL=1.
 Leave Link  303 at Mon Oct  5 21:37:00 2020, MaxMem=   268435456 cpu:               0.5 elap:               0.1
 (Enter /applis/site/cecic/gaussian16/B.01/nehalem/g16/l401.exe)
 ExpMin= 3.51D-02 ExpMax= 3.74D+05 ExpMxC= 1.18D+03 IAcc=3 IRadAn=         5 AccDes= 0.00D+00
 Harris functional with IExCor=  205 and IRadAn=       5 diagonalized for initial guess.
 HarFok:  IExCor=  205 AccDes= 0.00D+00 IRadAn=         5 IDoV= 1 UseB2=F ITyADJ=14
 ICtDFT=  3500011 ScaDFX=  1.000000  1.000000  1.000000  1.000000
 FoFCou: FMM=F IPFlag=           0 FMFlag=      100000 FMFlg1=           0
         NFxFlg=           0 DoJE=T BraDBF=F KetDBF=T FulRan=T
         wScrn=  0.000000 ICntrl=       500 IOpCl=  0 I1Cent=   200000004 NGrid=           0
         NMat0=    1 NMatS0=      1 NMatT0=    0 NMatD0=    1 NMtDS0=    0 NMtDT0=    0
 Petite list used in FoFCou.
 Harris En= -396.745935717432    
 JPrj=0 DoOrth=F DoCkMO=F.
 Initial guess orbital symmetries:
       Occupied  (A1G) (A1G) (T1U) (T1U) (T1U) (A1G) (T1U) (T1U)
                 (T1U)
       Virtual   (A1G) (T1U) (T1U) (T1U) (T2G) (T2G) (T2G) (EG)
                 (EG) (T1U) (T1U) (T1U) (T2G) (T2G) (T2G) (EG)
                 (EG) (A1G) (T2U) (T2U) (T2U) (A2U) (T1U) (T1U)
                 (T1U) (T2G) (T2G) (T2G) (EG) (EG) (T1U) (T1U)
                 (T1U) (T2U) (T2U) (T2U) (A2U) (T1U) (T1U) (T1U)
                 (A1G)
 The electronic state of the initial guess is 4-A1G.
 Leave Link  401 at Mon Oct  5 21:37:00 2020, MaxMem=   268435456 cpu:               1.7 elap:               0.2
 (Enter /applis/site/cecic/gaussian16/B.01/nehalem/g16/l502.exe)
 Keep R1 and R2 ints in memory in symmetry-blocked form, NReq=4746118.
 FoFCou: FMM=F IPFlag=           0 FMFlag=           0 FMFlg1=           0
         NFxFlg=           0 DoJE=F BraDBF=F KetDBF=F FulRan=T
         wScrn=  0.000000 ICntrl=       600 IOpCl=  0 I1Cent=           0 NGrid=           0
         NMat0=    1 NMatS0=   1275 NMatT0=    0 NMatD0=    1 NMtDS0=    0 NMtDT0=    0
 Petite list used in FoFCou.
 Restricted open shell SCF:
 Using DIIS extrapolation, IDIIS=  1040.
 NGot=   268435456 LenX=   268204232 LenY=   268200310
 Requested convergence on RMS density matrix=1.00D-08 within 128 cycles.
 Requested convergence on MAX density matrix=1.00D-06.
 Requested convergence on             energy=1.00D-06.
 No special actions if energy rises.

 Cycle   1  Pass 1  IDiag  1:
 E= -397.101062452163    
 DIIS: error= 7.72D-02 at cycle   1 NSaved=   1.
 NSaved= 1 IEnMin= 1 EnMin= -397.101062452163     IErMin= 1 ErrMin= 7.72D-02
 ErrMax= 7.72D-02  0.00D+00 EMaxC= 1.00D-01 BMatC= 1.47D-01 BMatP= 1.47D-01
 IDIUse=3 WtCom= 2.28D-01 WtEn= 7.72D-01
 Coeff-Com:  0.100D+01
 Coeff-En:   0.100D+01
 Coeff:      0.100D+01
 Gap=     0.306 Goal=   None    Shift=    0.000
 GapD=    0.306 DampG=1.000 DampE=0.500 DampFc=0.5000 IDamp=-1.
 Damping current iteration by 5.00D-01
 RMSDP=8.54D-03 MaxDP=1.95D-01              OVMax= 2.32D-01

 Cycle   2  Pass 1  IDiag  1:
 E= -397.120934486167     Delta-E=       -0.019872034004 Rises=F Damp=T
 DIIS: error= 3.53D-02 at cycle   2 NSaved=   2.
 NSaved= 2 IEnMin= 2 EnMin= -397.120934486167     IErMin= 2 ErrMin= 3.53D-02
 ErrMax= 3.53D-02  0.00D+00 EMaxC= 1.00D-01 BMatC= 2.44D-02 BMatP= 1.47D-01
 IDIUse=3 WtCom= 6.47D-01 WtEn= 3.53D-01
 Coeff-Com: -0.127D+00 0.113D+01
 Coeff-En:   0.345D+00 0.655D+00
 Coeff:      0.394D-01 0.961D+00
 Gap=     0.278 Goal=   None    Shift=    0.000
 RMSDP=3.75D-03 MaxDP=7.79D-02 DE=-1.99D-02 OVMax= 2.11D-01

 Cycle   3  Pass 1  IDiag  1:
 E= -397.142298736955     Delta-E=       -0.021364250788 Rises=F Damp=F
 DIIS: error= 2.76D-02 at cycle   3 NSaved=   3.
 NSaved= 3 IEnMin= 3 EnMin= -397.142298736955     IErMin= 3 ErrMin= 2.76D-02
 ErrMax= 2.76D-02  0.00D+00 EMaxC= 1.00D-01 BMatC= 1.83D-02 BMatP= 2.44D-02
 IDIUse=3 WtCom= 7.24D-01 WtEn= 2.76D-01
 Coeff-Com: -0.247D+00 0.618D+00 0.630D+00
 Coeff-En:   0.000D+00 0.275D+00 0.725D+00
 Coeff:     -0.179D+00 0.523D+00 0.656D+00
 Gap=     0.286 Goal=   None    Shift=    0.000
 RMSDP=3.13D-03 MaxDP=6.56D-02 DE=-2.14D-02 OVMax= 1.01D-01

 Cycle   4  Pass 1  IDiag  1:
 E= -397.168429197841     Delta-E=       -0.026130460886 Rises=F Damp=F
 DIIS: error= 4.77D-03 at cycle   4 NSaved=   4.
 NSaved= 4 IEnMin= 4 EnMin= -397.168429197841     IErMin= 4 ErrMin= 4.77D-03
 ErrMax= 4.77D-03  0.00D+00 EMaxC= 1.00D-01 BMatC= 1.02D-03 BMatP= 1.83D-02
 IDIUse=3 WtCom= 9.52D-01 WtEn= 4.77D-02
 Coeff-Com: -0.129D+00 0.303D+00 0.201D+00 0.625D+00
 Coeff-En:   0.000D+00 0.000D+00 0.000D+00 0.100D+01
 Coeff:     -0.123D+00 0.288D+00 0.191D+00 0.643D+00
 Gap=     0.280 Goal=   None    Shift=    0.000
 RMSDP=8.12D-04 MaxDP=1.57D-02 DE=-2.61D-02 OVMax= 1.10D-02

 Cycle   5  Pass 1  IDiag  1:
 E= -397.168717931895     Delta-E=       -0.000288734054 Rises=F Damp=F
 DIIS: error= 5.17D-03 at cycle   5 NSaved=   5.
 NSaved= 5 IEnMin= 5 EnMin= -397.168717931895     IErMin= 4 ErrMin= 4.77D-03
 ErrMax= 5.17D-03  0.00D+00 EMaxC= 1.00D-01 BMatC= 6.71D-04 BMatP= 1.02D-03
 IDIUse=3 WtCom= 9.48D-01 WtEn= 5.17D-02
 Coeff-Com: -0.307D-01 0.643D-01-0.142D+00-0.209D+00 0.132D+01
 Coeff-En:   0.000D+00 0.000D+00 0.000D+00 0.000D+00 0.100D+01
 Coeff:     -0.291D-01 0.610D-01-0.135D+00-0.199D+00 0.130D+01
 Gap=     0.274 Goal=   None    Shift=    0.000
 RMSDP=6.23D-04 MaxDP=1.34D-02 DE=-2.89D-04 OVMax= 2.02D-02

 Cycle   6  Pass 1  IDiag  1:
 E= -397.169721819818     Delta-E=       -0.001003887923 Rises=F Damp=F
 DIIS: error= 6.45D-04 at cycle   6 NSaved=   6.
 NSaved= 6 IEnMin= 6 EnMin= -397.169721819818     IErMin= 6 ErrMin= 6.45D-04
 ErrMax= 6.45D-04  0.00D+00 EMaxC= 1.00D-01 BMatC= 1.67D-05 BMatP= 6.71D-04
 IDIUse=3 WtCom= 9.94D-01 WtEn= 6.45D-03
 Coeff-Com: -0.760D-02 0.173D-01 0.287D-01-0.849D-01-0.128D+00 0.117D+01
 Coeff-En:   0.000D+00 0.000D+00 0.000D+00 0.000D+00 0.000D+00 0.100D+01
 Coeff:     -0.755D-02 0.172D-01 0.285D-01-0.844D-01-0.128D+00 0.117D+01
 Gap=     0.275 Goal=   None    Shift=    0.000
 RMSDP=1.09D-04 MaxDP=2.55D-03 DE=-1.00D-03 OVMax= 1.89D-03

 Cycle   7  Pass 1  IDiag  1:
 E= -397.169739625608     Delta-E=       -0.000017805790 Rises=F Damp=F
 DIIS: error= 3.36D-04 at cycle   7 NSaved=   7.
 NSaved= 7 IEnMin= 7 EnMin= -397.169739625608     IErMin= 7 ErrMin= 3.36D-04
 ErrMax= 3.36D-04  0.00D+00 EMaxC= 1.00D-01 BMatC= 2.79D-06 BMatP= 1.67D-05
 IDIUse=3 WtCom= 9.97D-01 WtEn= 3.36D-03
 Coeff-Com: -0.290D-03 0.103D-02-0.759D-03-0.133D-01-0.558D-01 0.119D+00
 Coeff-Com:  0.950D+00
 Coeff-En:   0.000D+00 0.000D+00 0.000D+00 0.000D+00 0.000D+00 0.000D+00
 Coeff-En:   0.100D+01
 Coeff:     -0.289D-03 0.103D-02-0.756D-03-0.132D-01-0.556D-01 0.119D+00
 Coeff:      0.950D+00
 Gap=     0.275 Goal=   None    Shift=    0.000
 RMSDP=4.59D-05 MaxDP=1.07D-03 DE=-1.78D-05 OVMax= 1.45D-03

 Cycle   8  Pass 1  IDiag  1:
 E= -397.169743959809     Delta-E=       -0.000004334201 Rises=F Damp=F
 DIIS: error= 1.33D-05 at cycle   8 NSaved=   8.
 NSaved= 8 IEnMin= 8 EnMin= -397.169743959809     IErMin= 8 ErrMin= 1.33D-05
 ErrMax= 1.33D-05  0.00D+00 EMaxC= 1.00D-01 BMatC= 5.49D-09 BMatP= 2.79D-06
 IDIUse=1 WtCom= 1.00D+00 WtEn= 0.00D+00
 Coeff-Com: -0.692D-04 0.112D-03-0.605D-03 0.464D-03 0.652D-02-0.238D-01
 Coeff-Com: -0.426D-01 0.106D+01
 Coeff:     -0.692D-04 0.112D-03-0.605D-03 0.464D-03 0.652D-02-0.238D-01
 Coeff:     -0.426D-01 0.106D+01
 Gap=     0.275 Goal=   None    Shift=    0.000
 RMSDP=1.99D-06 MaxDP=5.40D-05 DE=-4.33D-06 OVMax= 5.43D-05

 Cycle   9  Pass 1  IDiag  1:
 E= -397.169743967300     Delta-E=       -0.000000007491 Rises=F Damp=F
 DIIS: error= 1.28D-06 at cycle   9 NSaved=   9.
 NSaved= 9 IEnMin= 9 EnMin= -397.169743967300     IErMin= 9 ErrMin= 1.28D-06
 ErrMax= 1.28D-06  0.00D+00 EMaxC= 1.00D-01 BMatC= 6.24D-11 BMatP= 5.49D-09
 IDIUse=1 WtCom= 1.00D+00 WtEn= 0.00D+00
 Coeff-Com:  0.113D-05 0.792D-06 0.193D-04-0.150D-03-0.676D-03 0.212D-02
 Coeff-Com:  0.112D-01-0.227D+00 0.121D+01
 Coeff:      0.113D-05 0.792D-06 0.193D-04-0.150D-03-0.676D-03 0.212D-02
 Coeff:      0.112D-01-0.227D+00 0.121D+01
 Gap=     0.275 Goal=   None    Shift=    0.000
 RMSDP=2.54D-07 MaxDP=6.89D-06 DE=-7.49D-09 OVMax= 5.95D-06

 Cycle  10  Pass 1  IDiag  1:
 E= -397.169743967380     Delta-E=       -0.000000000080 Rises=F Damp=F
 DIIS: error= 1.21D-08 at cycle  10 NSaved=  10.
 NSaved=10 IEnMin=10 EnMin= -397.169743967380     IErMin=10 ErrMin= 1.21D-08
 ErrMax= 1.21D-08  0.00D+00 EMaxC= 1.00D-01 BMatC= 4.09D-15 BMatP= 6.24D-11
 IDIUse=1 WtCom= 1.00D+00 WtEn= 0.00D+00
 Coeff-Com:  0.140D-06-0.495D-06-0.111D-05 0.143D-04 0.425D-04-0.144D-03
 Coeff-Com: -0.836D-03 0.184D-01-0.119D+00 0.110D+01
 Coeff:      0.140D-06-0.495D-06-0.111D-05 0.143D-04 0.425D-04-0.144D-03
 Coeff:     -0.836D-03 0.184D-01-0.119D+00 0.110D+01
 Gap=     0.275 Goal=   None    Shift=    0.000
 RMSDP=2.78D-09 MaxDP=5.55D-08 DE=-7.97D-11 OVMax= 8.92D-08

 SCF Done:  E(ROHF) =  -397.169743967     A.U. after   10 cycles
            NFock= 10  Conv=0.28D-08     -V/T= 2.0001
 <Sx>= 0.0000 <Sy>= 0.0000 <Sz>= 1.5000 <S**2>= 3.7500 S= 1.5000
 <L.S>= 0.000000000000E+00
 KE= 3.971466956525D+02 PE=-9.400730369577D+02 EE= 1.457565973378D+02
 Annihilation of the first spin contaminant:
 S**2 before annihilation     3.7500,   after     3.7500
 Leave Link  502 at Mon Oct  5 21:37:01 2020, MaxMem=   268435456 cpu:               5.8 elap:               0.8
 (Enter /applis/site/cecic/gaussian16/B.01/nehalem/g16/l801.exe)
 Windowed orbitals will be sorted by symmetry type.
 GenMOA:  NOpAll= 48 NOp2=8 NOpUse= 48 JSym2X=1
 FoFJK:  IHMeth= 1 ICntrl=       0 DoSepK=F KAlg= 0 I1Cent=           0 FoldK=F
 IRaf=         0 NMat=       1 IRICut=       1 DoRegI=T DoRafI=F ISym2E= 1 IDoP0=0 IntGTp=1.
 FoFCou: FMM=F IPFlag=           0 FMFlag=      100000 FMFlg1=           0
         NFxFlg=           0 DoJE=F BraDBF=F KetDBF=F FulRan=T
         wScrn=  0.000000 ICntrl=         0 IOpCl=  1 I1Cent=           0 NGrid=           0
         NMat0=    1 NMatS0=      1 NMatT0=    0 NMatD0=    1 NMtDS0=    0 NMtDT0=    0
 Petite list used in FoFCou.
 <Sx>= 0.0000 <Sy>= 0.0000 <Sz>= 1.5000 <S**2>= 3.7500 S= 1.5000
 ExpMin= 3.51D-02 ExpMax= 3.74D+05 ExpMxC= 1.18D+03 IAcc=3 IRadAn=         5 AccDes= 0.00D+00
 HarFok:  IExCor=  205 AccDes= 0.00D+00 IRadAn=         5 IDoV=-2 UseB2=F ITyADJ=14
 ICtDFT= 12500011 ScaDFX=  1.000000  1.000000  1.000000  1.000000
 Largest valence mixing into a core orbital is  3.59D-04
 Largest core mixing into a valence orbital is  1.31D-04
 Largest valence mixing into a core orbital is  4.51D-04
 Largest core mixing into a valence orbital is  2.23D-04
 Range of M.O.s used for correlation:     6    50
 NBasis=    50 NAE=     9 NBE=     6 NFC=     5 NFV=     0
 NROrb=     45 NOA=     4 NOB=     1 NVA=    41 NVB=    44
 Singles contribution to E2=   -0.3544619767D-03
 Leave Link  801 at Mon Oct  5 21:37:01 2020, MaxMem=   268435456 cpu:               3.3 elap:               0.5
 (Enter /applis/site/cecic/gaussian16/B.01/nehalem/g16/l804.exe)
 Open-shell transformation, MDV=   268435456 ITran=4 ISComp=2.
 Unit  1 TFree=         63392 TCopy=        259631.
 Semi-Direct transformation.
 ModeAB=           2 MOrb=             4 LenV=     268139034
 LASXX=        21445 LTotXX=       21445 LenRXX=       21445
 LTotAB=       23654 MaxLAS=      318600 LenRXY=      318600
 NonZer=      345600 LenScr=      917504 LnRSAI=           0
 LnScr1=           0 LExtra=           0 Total=      1257549
 MaxDsk=          -1 SrtSym=           F ITran=            4
 DoSDTr:  NPSUse=  8
 JobTyp=1 Pass  1:  I=   1 to   4.
 (rs|ai) integrals will be sorted in core.
 Complete sort for first half transformation.
 First half transformation complete.
 Complete sort for second half transformation.
 Second half transformation complete.
 ModeAB=           2 MOrb=             1 LenV=     268139034
 LASXX=         5722 LTotXX=        5722 LenRXX=       79650
 LTotAB=        5217 MaxLAS=       79650 LenRXY=        5217
 NonZer=       86400 LenScr=      720896 LnRSAI=           0
 LnScr1=           0 LExtra=           0 Total=       805763
 MaxDsk=          -1 SrtSym=           F ITran=            4
 DoSDTr:  NPSUse=  8
 JobTyp=2 Pass  1:  I=   1 to   1.
 (rs|ai) integrals will be sorted in core.
 Complete sort for first half transformation.
 First half transformation complete.
 Complete sort for second half transformation.
 Second half transformation complete.
 Spin components of T(2) and E(2):
     alpha-alpha T2 =       0.9675186980D-02 E2=     -0.2427985628D-01
     alpha-beta  T2 =       0.2780303683D-01 E2=     -0.6622118866D-01
     beta-beta   T2 =       0.0000000000D+00 E2=      0.0000000000D+00
 ANorm=    0.1018672917D+01
 E2 =    -0.9085550692D-01 EUMP2 =    -0.39726059947430D+03
 (S**2,0)=  0.37500D+01           (S**2,1)=  0.37500D+01
 E(PUHF)=      -0.39716974397D+03        E(PMP2)=      -0.39726059947D+03
 Leave Link  804 at Mon Oct  5 21:37:02 2020, MaxMem=   268435456 cpu:               3.5 elap:               0.5
 (Enter /applis/site/cecic/gaussian16/B.01/nehalem/g16/l913.exe)
 CIDS:  MDV=   268435456.
 Frozen-core window:  NFC=   5 NFV=   0.
 IFCWin=0 IBDFC=1 NFBD=     0     0 NFCmp=     0     0 NFFFC=     0     0
 Using original routines for 1st iteration.
 Using DD4UQ or CC4UQ for 2nd and later iterations.
 Keep R2 and R3 ints in memory in symmetry-blocked form, NReq=4749771.
 FoFCou: FMM=F IPFlag=           0 FMFlag=           0 FMFlg1=           0
         NFxFlg=           0 DoJE=F BraDBF=F KetDBF=F FulRan=T
         wScrn=  0.000000 ICntrl=       600 IOpCl=  0 I1Cent=           0 NGrid=           0
         NMat0=    1 NMatS0=   1275 NMatT0=    0 NMatD0=    1 NMtDS0=    0 NMtDT0=    0
 Petite list used in FoFCou.
 CIDS: In Core Option IDoMem=           1.
 CCSD(T)
 =======
 Iterations=  50 Convergence= 0.100D-06
 Produce multiple copies of IABC intergrals
 Iteration Nr.   1
 **********************
 DD1Dir will call FoFMem   1 times, MxPair=        14
 NAB=     4 NAA=     6 NBB=     0.
 DD1Dir will call FoFMem   1 times, MxPair=        14
 NAB=     4 NAA=     6 NBB=     0.
 MP4(R+Q)=  0.20249773D-01
 Maximum subspace dimension=  5
 A-vector RMS=  2.2136423D-04 Max=  1.6122912D-03 conv= 1.00D-05.
 RLE energy=       -0.0882591578
 E3=       -0.17584661D-01        EROMP3=      -0.39727818414D+03
 E4(SDQ)=  -0.18530662D-02        ROMP4(SDQ)=  -0.39728003720D+03
 VARIATIONAL ENERGIES WITH THE FIRST-ORDER WAVEFUNCTION:
 DE(Corr)= -0.88182665E-01 E(Corr)=     -397.25792663    
 NORM(A)=   0.10174936D+01
 Iteration Nr.   2
 **********************
 DD1Dir will call FoFMem   1 times, MxPair=        14
 NAB=     4 NAA=     6 NBB=     0.
 A-vector RMS=  1.4858920D-03 Max=  8.6617973D-03 conv= 1.00D-05.
 RLE energy=       -0.0913370432
 DE(Corr)= -0.10536465     E(CORR)=     -397.27510861     Delta=-1.72D-02
 NORM(A)=   0.10188367D+01
 Iteration Nr.   3
 **********************
 DD1Dir will call FoFMem   1 times, MxPair=        14
 NAB=     4 NAA=     6 NBB=     0.
 A-vector RMS=  1.2939789D-03 Max=  7.5540050D-03 conv= 1.00D-05.
 RLE energy=       -0.1023263845
 DE(Corr)= -0.10596433     E(CORR)=     -397.27570830     Delta=-6.00D-04
 NORM(A)=   0.10243516D+01
 Iteration Nr.   4
 **********************
 DD1Dir will call FoFMem   1 times, MxPair=        14
 NAB=     4 NAA=     6 NBB=     0.
 A-vector RMS=  5.2629890D-04 Max=  3.1809328D-03 conv= 1.00D-05.
 RLE energy=       -0.1071459127
 DE(Corr)= -0.10827081     E(CORR)=     -397.27801477     Delta=-2.31D-03
 NORM(A)=   0.10270918D+01
 Iteration Nr.   5
 **********************
 DD1Dir will call FoFMem   1 times, MxPair=        14
 NAB=     4 NAA=     6 NBB=     0.
 A-vector RMS=  1.8595940D-04 Max=  1.1038768D-03 conv= 1.00D-05.
 RLE energy=       -0.1102438752
 DE(Corr)= -0.10925619     E(CORR)=     -397.27900016     Delta=-9.85D-04
 NORM(A)=   0.10289327D+01
 Iteration Nr.   6
 **********************
 DD1Dir will call FoFMem   1 times, MxPair=        14
 NAB=     4 NAA=     6 NBB=     0.
 A-vector RMS=  3.2237619D-05 Max=  1.9255584D-04 conv= 1.00D-05.
 RLE energy=       -0.1097724846
 DE(Corr)= -0.10987320     E(CORR)=     -397.27961717     Delta=-6.17D-04
 NORM(A)=   0.10286463D+01
 Iteration Nr.   7
 **********************
 DD1Dir will call FoFMem   1 times, MxPair=        14
 NAB=     4 NAA=     6 NBB=     0.
 A-vector RMS=  7.8627423D-07 Max=  5.4620312D-06 conv= 1.00D-05.
 RLE energy=       -0.1097814490
 DE(Corr)= -0.10977939     E(CORR)=     -397.27952336     Delta= 9.38D-05
 NORM(A)=   0.10286522D+01
 Iteration Nr.   8
 **********************
 DD1Dir will call FoFMem   1 times, MxPair=        14
 NAB=     4 NAA=     6 NBB=     0.
 A-vector RMS=  1.0293625D-07 Max=  6.9488639D-07 conv= 1.00D-05.
 RLE energy=       -0.1097812274
 DE(Corr)= -0.10978135     E(CORR)=     -397.27952532     Delta=-1.96D-06
 NORM(A)=   0.10286521D+01
 Iteration Nr.   9
 **********************
 DD1Dir will call FoFMem   1 times, MxPair=        14
 NAB=     4 NAA=     6 NBB=     0.
 A-vector RMS=  2.5622295D-08 Max=  1.7906899D-07 conv= 1.00D-05.
 RLE energy=       -0.1097813162
 DE(Corr)= -0.10978130     E(CORR)=     -397.27952527     Delta= 5.02D-08
 NORM(A)=   0.10286522D+01
 CI/CC converged in    9 iterations to DelEn= 5.02D-08 Conv= 1.00D-07 ErrA1= 2.56D-08 Conv= 1.00D-05
 Wavefunction amplitudes converged. E(Corr)=     -397.27952527    
 Largest amplitude= 4.44D-02
 Time for triples=      454.89 seconds.
 T4(CCSD)= -0.35248474D-02
 T5(CCSD)= -0.16911020D-05
 CCSD(T)= -0.39728305180D+03
 Discarding MO integrals.
 Leave Link  913 at Mon Oct  5 21:38:10 2020, MaxMem=   268435456 cpu:             473.7 elap:              68.4
 (Enter /applis/site/cecic/gaussian16/B.01/nehalem/g16/l601.exe)
 Copying SCF densities to generalized density rwf, IOpCl= 0 IROHF=1.

 **********************************************************************

            Population analysis using the SCF Density.

 **********************************************************************

 Orbital symmetries:
       Occupied  (A1G) (A1G) (T1U) (T1U) (T1U) (A1G) (T1U) (T1U)
                 (T1U)
       Virtual   (A1G) (T1U) (T1U) (T1U) (T2G) (T2G) (T2G) (EG)
                 (EG) (T1U) (T1U) (T1U) (EG) (EG) (T2G) (T2G) (T2G)
                 (A1G) (?A) (?A) (?A) (?A) (A2U) (?A) (?A) (EG)
                 (EG) (T2G) (T2G) (T2G) (T1U) (T1U) (T1U) (?A)
                 (?A) (?A) (?A) (?A) (A2U) (?A) (A1G)
 The electronic state is 4-A1G.
 Alpha  occ. eigenvalues --  -92.44923  -9.44284  -7.13095  -7.13095  -7.13095
 Alpha  occ. eigenvalues --   -1.41029  -0.86172  -0.86172  -0.86172
 Alpha virt. eigenvalues --   -0.11238  -0.07544  -0.07544  -0.07544  -0.01119
 Alpha virt. eigenvalues --   -0.01119  -0.01119  -0.01119  -0.01119   0.24799
 Alpha virt. eigenvalues --    0.24799   0.24799   0.35980   0.35980   0.35980
 Alpha virt. eigenvalues --    0.35980   0.35980   0.42195   0.54287   0.54287
 Alpha virt. eigenvalues --    0.54287   0.54287   0.54287   0.54287   0.54287
 Alpha virt. eigenvalues --    1.59924   1.59924   1.59924   1.59924   1.59924
 Alpha virt. eigenvalues --    1.91946   1.91946   1.91946   1.92764   1.92764
 Alpha virt. eigenvalues --    1.92764   1.92764   1.92764   1.92764   1.92764
 Alpha virt. eigenvalues --    3.69651
          Condensed to atoms (all electrons):
               1
     1  S   15.000000
          Atomic-Atomic Spin Densities.
               1
     1  S    3.000000
 Mulliken charges and spin densities:
               1          2
     1  S    1.000000   3.000000
 Sum of Mulliken charges =   1.00000   3.00000
 Mulliken charges and spin densities with hydrogens summed into heavy atoms:
               1          2
     1  S    1.000000   3.000000
 Electronic spatial extent (au):  <R**2>=             20.7820
 Charge=              1.0000 electrons
 Dipole moment (field-independent basis, Debye):
    X=              0.0000    Y=              0.0000    Z=              0.0000  Tot=              0.0000
 Quadrupole moment (field-independent basis, Debye-Ang):
   XX=             -9.3175   YY=             -9.3175   ZZ=             -9.3175
   XY=              0.0000   XZ=              0.0000   YZ=             -0.0000
 Traceless Quadrupole moment (field-independent basis, Debye-Ang):
   XX=              0.0000   YY=              0.0000   ZZ=              0.0000
   XY=              0.0000   XZ=              0.0000   YZ=             -0.0000
 Octapole moment (field-independent basis, Debye-Ang**2):
  XXX=              0.0000  YYY=              0.0000  ZZZ=              0.0000  XYY=              0.0000
  XXY=              0.0000  XXZ=              0.0000  XZZ=              0.0000  YZZ=              0.0000
  YYZ=              0.0000  XYZ=              0.0000
 Hexadecapole moment (field-independent basis, Debye-Ang**3):
 XXXX=             -9.2788 YYYY=             -9.2788 ZZZZ=             -9.2788 XXXY=              0.0000
 XXXZ=              0.0000 YYYX=             -0.0000 YYYZ=             -0.0000 ZZZX=              0.0000
 ZZZY=             -0.0000 XXYY=             -3.0929 XXZZ=             -3.0929 YYZZ=             -3.0929
 XXYZ=             -0.0000 YYXZ=              0.0000 ZZXY=              0.0000
 N-N= 0.000000000000D+00 E-N=-9.400730378266D+02  KE= 3.971466956525D+02
 Symmetry AG   KE= 2.851685272563D+02
 Symmetry B1G  KE= 1.299014844859D-60
 Symmetry B2G  KE= 1.565727944326D-60
 Symmetry B3G  KE= 1.030622237608D-60
 Symmetry AU   KE= 6.115102776645D-60
 Symmetry B1U  KE= 3.732605613208D+01
 Symmetry B2U  KE= 3.732605613208D+01
 Symmetry B3U  KE= 3.732605613208D+01
 Symmetry AG   SP=-2.919266186943D-15
 Symmetry B1G  SP=-3.452405764382D-76
 Symmetry B2G  SP=-1.476152491963D-76
 Symmetry B3G  SP=-1.658606987611D-76
 Symmetry AU   SP= 2.402973854481D-61
 Symmetry B1U  SP= 1.000000000000D+00
 Symmetry B2U  SP= 1.000000000000D+00
 Symmetry B3U  SP= 1.000000000000D+00
                          Isotropic Fermi Contact Couplings
        Atom                 a.u.       MegaHertz       Gauss      10(-4) cm-1
     1  S(33)             -0.00000      -0.00000      -0.00000      -0.00000
 --------------------------------------------------------
       Center         ----  Spin Dipole Couplings  ----
                      3XX-RR        3YY-RR        3ZZ-RR
 --------------------------------------------------------
     1   Atom       -0.000000      0.000000      0.000000
 --------------------------------------------------------
                        XY            XZ            YZ
 --------------------------------------------------------
     1   Atom        0.000000      0.000000      0.000000
 --------------------------------------------------------


 ---------------------------------------------------------------------------------
              Anisotropic Spin Dipole Couplings in Principal Axis System
 ---------------------------------------------------------------------------------

       Atom             a.u.   MegaHertz   Gauss  10(-4) cm-1        Axes

              Baa    -0.0000    -0.000    -0.000    -0.000  1.0000  0.0000  0.0000
     1 S(33)  Bbb     0.0000     0.000     0.000     0.000 -0.0000  1.0000  0.0000
              Bcc     0.0000     0.000     0.000     0.000  0.0000  0.0000  1.0000
 

 ---------------------------------------------------------------------------------

 No NMR shielding tensors so no spin-rotation constants.
 Leave Link  601 at Mon Oct  5 21:38:11 2020, MaxMem=   268435456 cpu:               2.2 elap:               0.4
 (Enter /applis/site/cecic/gaussian16/B.01/nehalem/g16/l9999.exe)
 1\1\GINC-DAHU107\SP\ROCCSD(T)-FC\Aug-CC-pVTZ\S1(1+,4)\TINACCIL\05-Oct-
 2020\0\\#P ROCCSD(T)/aug-cc-pvtz\\Title\\1,4\S\\Version=ES64L-G16RevB.
 01\State=4-A1G\HF=-397.169744\MP2=-397.2605995\MP3=-397.2781841\PUHF=-
 397.169744\PMP2-0=-397.2605995\MP4SDQ=-397.2800372\CCSD=-397.2795253\C
 CSD(T)=-397.2830518\RMSD=2.785e-09\PG=OH [O(S1)]\\@


 NOBODY LOSES ALL THE TIME
 I HAD AN UNCLE NAMED
 SOL WHO WAS A BORN FAILURE AND
 NEARLY EVERYBODY SAID HE SHOULD HAVE GONE
 INTO VAUDEVILLE PERHAPS BECAUSE MY UNCLE SOL COULD
 SING MCCANN HE WAS A DIVER ON XMAS EVE LIKE HELL ITSELF WHICH
 MAY OR MAY NOT ACCOUNT FOR THE FACT THAT MY UNCLE
 SOL INDULGED IN THAT POSSIBLY MOST INEXCUSABLE
 OF ALL TO USE A HIGHFALOOTIN PHRASE
 LUXURIES THAT IS OR TO
 WIT FARMING AND BE
 IT NEEDLESSLY
 ADDED
 MY UNCLE SOL'S FARM     
 FAILED BECAUSE THE CHICKENS
 ATE THE VEGETABLES SO
 MY UNCLE SOL HAD A
 CHICKEN FARM TILL THE
 SKUNKS ATE THE CHICKENS WHEN 
 MY UNCLE SOL
 HAD A SKUNK FARM BUT
 THE SKUNKS CAUGHT COLD AND
 DIED AND SO
 MY UNCLE SOL IMITATED THE
 SKUNKS IN A SUBTLE MANNER
 OR BY DROWNING HIMSELF IN THE WATERTANK
 BUT SOMEBODY WHO'D GIVEN MY UNCLE SOL A VICTOR     
 VICTROLA AND RECORDS WHILE HE LIVED PRESENTED TO
 HIM UPON THE AUSPICIOUS OCCASION OF HIS DECEASE A
 SCRUMPTIOUS NOT TO MENTION SPLENDIFEROUS FUNERAL WITH
 TALL BOYS IN BLACK GLOVES AND FLOWERS AND EVERYTHING AND
 I REMEMBER WE ALL CRIED LIKE THE MISSOURI
 WHEN MY UNCLE SOL'S COFFIN LURCHED BECAUSE     
 SOMEBODY PRESSED A BUTTON
 (AND DOWN WENT
 MY UNCLE
 SOL
 AND STARTED A WORM FARM)
           E. E. CUMMINGS
 Job cpu time:       0 days  0 hours  8 minutes 16.3 seconds.
 Elapsed time:       0 days  0 hours  1 minutes 12.0 seconds.
 File lengths (MBytes):  RWF=     23 Int=      0 D2E=      0 Chk=      2 Scr=      1
 Normal termination of Gaussian 16 at Mon Oct  5 21:38:11 2020.
