5
 energy: -9.992464592223 gnorm: 0.181971282164 xtb: 6.2.2 (9d81278992624c895f80dd42a50cac0aa55982e2)
C        -1.04431000000000   -1.25571300000000   -0.06433200000000
C        -0.21954200000000    0.01237000000000   -0.00171300000000
C         1.07289800000000   -0.09340400000000    0.76978300000000
C        -0.89753200000000    1.36512400000000    0.04910100000000
C         1.08848700000000   -0.02837600000000   -0.75283900000000
5
 energy: -10.028922580776 gnorm: 0.149457324349 xtb: 6.2.2 (9d81278992624c895f80dd42a50cac0aa55982e2)
C        -0.99148920403850   -1.19958318213245   -0.06139183060775
C        -0.27297662865772    0.01538106177933   -0.00213440335886
C         1.05045738656884   -0.09059710196010    0.73396081461185
C        -0.85131145452681    1.30341398931281    0.04694088672310
C         1.06532090065419   -0.02861376699960   -0.71737546736834
5
 energy: -10.032506391475 gnorm: 0.312214871518 xtb: 6.2.2 (9d81278992624c895f80dd42a50cac0aa55982e2)
C        -0.89483722501076   -1.13224223752365   -0.05752526998401
C        -0.44377326545630    0.02500530042181   -0.00347232867587
C         1.04461787754820   -0.08456294185209    0.60207583857745
C        -0.76278901111197    1.22564064416746    0.04452666924920
C         1.05678262403083   -0.03383976521353   -0.58560490916677
5
 energy: -10.069721273782 gnorm: 0.074830700049 xtb: 6.2.2 (9d81278992624c895f80dd42a50cac0aa55982e2)
C        -0.90352605744118   -1.23308696781012   -0.06192064494009
C        -0.41026475498073    0.02311752603344   -0.00321064331807
C         1.03022459148006   -0.08658658138646    0.66744861426903
C        -0.76016401608628    1.32682738402830    0.04887542336611
C         1.04373123702813   -0.03027036086516   -0.65119274937697
5
 energy: -10.077341947826 gnorm: 0.070440874760 xtb: 6.2.2 (9d81278992624c895f80dd42a50cac0aa55982e2)
C        -0.83834789631801   -1.30376955322407   -0.06426999439500
C        -0.48673079470713    0.02742754363354   -0.00381216106312
C         0.99982228990729   -0.08367710882266    0.63952839004479
C        -0.68750769769841    1.38974536003802    0.05230839763867
C         1.01276509881625   -0.02972524162483   -0.62375463222534
5
 energy: -10.082212327865 gnorm: 0.071095271800 xtb: 6.2.2 (9d81278992624c895f80dd42a50cac0aa55982e2)
C        -0.78877124243291   -1.32376076903513   -0.06461620221116
C        -0.53834629273339    0.03033822307874   -0.00421548700780
C         0.97508694711586   -0.08233059148343    0.64035818587489
C        -0.63601780844931    1.40404517152907    0.05344618232146
C         0.98804939649976   -0.02829103408925   -0.62497267897740
5
 energy: -10.099529564246 gnorm: 0.093518242910 xtb: 6.2.2 (9d81278992624c895f80dd42a50cac0aa55982e2)
C        -0.60301787493628   -1.34804899262293   -0.06375312191816
C        -0.72129174027780    0.04066099817489   -0.00564335479362
C         0.87985535951742   -0.07786328083990    0.65993629386886
C        -0.44876827541720    1.40733872126942    0.05550211561143
C         0.89322353111386   -0.02208644598148   -0.64604193276851
5
 energy: -10.115519325122 gnorm: 0.077267553818 xtb: 6.2.2 (9d81278992624c895f80dd42a50cac0aa55982e2)
C        -0.50467504305065   -1.26889058240177   -0.05936589109587
C        -0.82617681639561    0.04657977458324   -0.00646263848773
C         0.83842668909464   -0.07671096874310    0.68660842126351
C        -0.35991758590361    1.31765038985249    0.05258081672155
C         0.85234375625524   -0.01862761329087   -0.67336070840147
5
 energy: -10.138754209859 gnorm: 0.175589344394 xtb: 6.2.2 (9d81278992624c895f80dd42a50cac0aa55982e2)
C        -0.31021814182264   -1.21015109863811   -0.05486883647562
C        -0.99186349950430    0.05591131781650   -0.00775220959559
C         0.73053577162698   -0.07144334058953    0.70426358099213
C        -0.17327384865159    1.23746173101229    0.05106366570043
C         0.74482071835155   -0.01177760960114   -0.69270620062136
5
 energy: -10.172350186040 gnorm: 0.062454125922 xtb: 6.2.2 (9d81278992624c895f80dd42a50cac0aa55982e2)
C        -0.22734220553316   -1.07270560441244   -0.04814218052553
C        -1.04771939108645    0.05903577113230   -0.00818958728458
C         0.68320514072980   -0.07002266484955    0.73277214140906
C        -0.10622673451669    1.09155792906216    0.04551192548279
C         0.69808419040650   -0.00786443093247   -0.72195229908174
5
 energy: -10.176195618527 gnorm: 0.054858515052 xtb: 6.2.2 (9d81278992624c895f80dd42a50cac0aa55982e2)
C        -0.19469981472954   -1.07177713724197   -0.04771044440678
C        -1.04475599762659    0.05880363483044   -0.00819441326248
C         0.64900307069500   -0.06853580672261    0.74283187139248
C        -0.07368311262782    1.08685961985522    0.04561619517582
C         0.66413685428896   -0.00534931072107   -0.73254320889904
5
 energy: -10.102956144968 gnorm: 0.418810918937 xtb: 6.2.2 (9d81278992624c895f80dd42a50cac0aa55982e2)
C        -0.24083967022279   -1.08046668406561   -0.04820593412239
C        -0.75056332471081    0.04210738499473   -0.00597289221135
C         0.54649743556468   -0.06529041947481    0.79356421980799
C        -0.11795901064191    1.10032274734825    0.04548321312323
C         0.56286557001084    0.00332797119743   -0.78486860659749
5
 energy: -10.178384047734 gnorm: 0.044668309250 xtb: 6.2.2 (9d81278992624c895f80dd42a50cac0aa55982e2)
C        -0.19394496574728   -1.12729738347612   -0.04971857612265
C        -0.92063155569242    0.05193516001413   -0.00729484381202
C         0.58276811434681   -0.06656829211199    0.76952850987328
C        -0.06679278276224    1.14190792776812    0.04776242674013
C         0.59860218985513    0.00002358780585   -0.76027751667875
5
 energy: -10.181189472496 gnorm: 0.016879468961 xtb: 6.2.2 (9d81278992624c895f80dd42a50cac0aa55982e2)
C        -0.18266293763554   -1.08335815884202   -0.04746127277438
C        -0.98866282351729    0.05564960151253   -0.00771626363648
C         0.60808775079555   -0.06817054448975    0.76149048479012
C        -0.06041258050993    1.09700778325160    0.04550952189850
C         0.62365159086722   -0.00112768143237   -0.75182247027776
5
 energy: -10.181588376644 gnorm: 0.003897230364 xtb: 6.2.2 (9d81278992624c895f80dd42a50cac0aa55982e2)
C        -0.17738122679339   -1.09500239671338   -0.04728621259791
C        -0.97660604644435    0.05514431305812   -0.00767661643488
C         0.59620925421444   -0.06884725410180    0.76535399381614
C        -0.05427765616401    1.10817383882646    0.04550373626301
C         0.61205667518731    0.00053249893060   -0.75589490104637
5
 energy: -10.181603895728 gnorm: 0.002849713057 xtb: 6.2.2 (9d81278992624c895f80dd42a50cac0aa55982e2)
C        -0.17547379825702   -1.09595090701783   -0.04631109152914
C        -0.97687732265601    0.05472157453191   -0.00765129603610
C         0.59374113425397   -0.07009155513751    0.76683252899838
C        -0.05114339904304    1.10838499412132    0.04449624757352
C         0.60975438570211    0.00293689350209   -0.75736638900667
5
 energy: -10.181612222871 gnorm: 0.002821964633 xtb: 6.2.2 (9d81278992624c895f80dd42a50cac0aa55982e2)
C        -0.17090594456282   -1.09576787722462   -0.04320236670929
C        -0.97770572281588    0.05607864117910   -0.00770486122233
C         0.59089198102641   -0.07654092228075    0.76892496016147
C        -0.04995317925503    1.10925673557636    0.04161012167134
C         0.60767386560732    0.00697442274991   -0.75962785390120
5
 energy: -10.181637015305 gnorm: 0.002708722593 xtb: 6.2.2 (9d81278992624c895f80dd42a50cac0aa55982e2)
C        -0.17073221191405   -1.09608352748311   -0.03811770170972
C        -0.97890622918570    0.05517019851900   -0.00755740366183
C         0.58961105859976   -0.08454240438164    0.77085831286670
C        -0.04715131450206    1.10838094957268    0.03628186075945
C         0.60717969700205    0.01707578377307   -0.76146506825461
5
 energy: -10.181372901667 gnorm: 0.015267743261 xtb: 6.2.2 (9d81278992624c895f80dd42a50cac0aa55982e2)
C        -0.17220512255462   -1.09714259789419   -0.00856206653237
C        -0.98336995813981    0.05244050936656   -0.00755187543534
C         0.58631562216511   -0.13284271646846    0.77722148038450
C        -0.04033884151345    1.10598867284019    0.00646283337298
C         0.60959930004277    0.07155713215590   -0.76757037178978
5
 energy: -10.181707963360 gnorm: 0.005657541872 xtb: 6.2.2 (9d81278992624c895f80dd42a50cac0aa55982e2)
C        -0.17763279751990   -1.09650902897403   -0.03004847343083
C        -0.97941577312825    0.05344409325553   -0.00833461680809
C         0.59314801864244   -0.09629120000972    0.77047541790064
C        -0.04927394915718    1.10741810213334    0.02886157227124
C         0.61317550116289    0.03193903359488   -0.76095389993296
5
 energy: -10.181793471161 gnorm: 0.006329411101 xtb: 6.2.2 (9d81278992624c895f80dd42a50cac0aa55982e2)
C        -0.17968960032373   -1.09707995732913   -0.02378275935860
C        -0.97947320798721    0.05366240051779   -0.00892690449764
C         0.59444938600306   -0.10686189495557    0.76984232177842
C        -0.05161131969902    1.10838315324374    0.02320870940160
C         0.61632574200690    0.04189729852317   -0.76034136732379
5
 energy: -10.181836969208 gnorm: 0.004550990716 xtb: 6.2.2 (9d81278992624c895f80dd42a50cac0aa55982e2)
C        -0.18013264470676   -1.09709128035945   -0.02300584220182
C        -0.97937537803006    0.05434707951674   -0.00893307470976
C         0.59554417236001   -0.10856893238633    0.76770677582978
C        -0.05337942110401    1.10912647665529    0.02231209120958
C         0.61734427148083    0.04218765657375   -0.75807995012778
5
 energy: -10.181931315835 gnorm: 0.006440199304 xtb: 6.2.2 (9d81278992624c895f80dd42a50cac0aa55982e2)
C        -0.18341422227732   -1.09761265708576   -0.01928456907345
C        -0.97835475906446    0.05650615332468   -0.00882757174809
C         0.60046997592002   -0.11618682889896    0.76052745786446
C        -0.06089011870948    1.11231448569612    0.01785702336522
C         0.62219012413125    0.04497984696391   -0.75027234040814
5
 energy: -10.181991672104 gnorm: 0.008573344568 xtb: 6.2.2 (9d81278992624c895f80dd42a50cac0aa55982e2)
C        -0.18694146521675   -1.09838647096728   -0.01607229769124
C        -0.97726716858903    0.05729842609165   -0.00860874306066
C         0.60413436461888   -0.12214107020633    0.75712951598773
C        -0.06601177138077    1.11449875334017    0.01389674627251
C         0.62608704056768    0.04873136174179   -0.74634522150833
5
 energy: -10.182356052743 gnorm: 0.022973017786 xtb: 6.2.2 (9d81278992624c895f80dd42a50cac0aa55982e2)
C        -0.21802334922918   -1.10555733403962    0.01199979814768
C        -0.96836536845740    0.06159718292132   -0.00645153283469
C         0.63373636971337   -0.17225961592971    0.73382423263472
C        -0.10589980572505    1.13153910406747   -0.02071130974797
C         0.65855315369827    0.08468166298055   -0.71866118819975
5
 energy: -10.182625200259 gnorm: 0.020259408788 xtb: 6.2.2 (9d81278992624c895f80dd42a50cac0aa55982e2)
C        -0.22956046735782   -1.10881588831762    0.02146781719159
C        -0.96604943346405    0.06124067238688   -0.00509023555863
C         0.64333046903263   -0.18928259527919    0.73067176289671
C        -0.11719836990694    1.13729471535187   -0.03375189092225
C         0.66947880169618    0.09956409585806   -0.71329745360742
5
 energy: -10.183086437758 gnorm: 0.008341612686 xtb: 6.2.2 (9d81278992624c895f80dd42a50cac0aa55982e2)
C        -0.24816600386560   -1.11592706923478    0.03489998286130
C        -0.96563124300306    0.05566742063338   -0.00151164076072
C         0.65547842036711   -0.21336262229368    0.73926288639819
C        -0.12589206296194    1.14472625206277   -0.05617569479151
C         0.68421188946349    0.12889701883231   -0.71647553370726
5
 energy: -10.183126872312 gnorm: 0.004047499680 xtb: 6.2.2 (9d81278992624c895f80dd42a50cac0aa55982e2)
C        -0.24877622896560   -1.11601897359929    0.03727650910238
C        -0.96602652002523    0.05666174345687   -0.00203811314991
C         0.65659068644074   -0.21571925853339    0.73566874567261
C        -0.12737066979993    1.14411236731590   -0.05732835734996
C         0.68558373235002    0.13096512135991   -0.71357878427513
5
 energy: -10.183147803951 gnorm: 0.002175605981 xtb: 6.2.2 (9d81278992624c895f80dd42a50cac0aa55982e2)
C        -0.24635542461785   -1.11554622382030    0.03721225782336
C        -0.96807666207383    0.05677122513644   -0.00282085139369
C         0.65441176238766   -0.21270050511519    0.73494991173772
C        -0.12386931122284    1.14127678681615   -0.05483700029911
C         0.68389063552686    0.13019971698289   -0.71450431786829
5
 energy: -10.183157533877 gnorm: 0.001872657608 xtb: 6.2.2 (9d81278992624c895f80dd42a50cac0aa55982e2)
C        -0.24745156026677   -1.11586884195940    0.03964430304016
C        -0.96947936691257    0.05638571085230   -0.00316863163010
C         0.65485701913330   -0.21404997185723    0.73390063006129
C        -0.12344587695783    1.14020514762213   -0.05560013989608
C         0.68552078500387    0.13332895534220   -0.71477616157528
5
 energy: -10.183163510641 gnorm: 0.001432813473 xtb: 6.2.2 (9d81278992624c895f80dd42a50cac0aa55982e2)
C        -0.24811324942884   -1.11601488313045    0.04158224684218
C        -0.97102330023098    0.05568408968932   -0.00398495960844
C         0.65453350297666   -0.21336146312406    0.73329807484928
C        -0.12214979196340    1.13879029661731   -0.05425234469488
C         0.68675383864656    0.13490295994789   -0.71664301738814
5
 energy: -10.183167400950 gnorm: 0.000905768691 xtb: 6.2.2 (9d81278992624c895f80dd42a50cac0aa55982e2)
C        -0.24932567106549   -1.11638065914158    0.04319769078427
C        -0.97091622901598    0.05546500872687   -0.00489724186657
C         0.65509983464481   -0.21353730948005    0.73223016493361
C        -0.12278838124995    1.13883181621023   -0.05329476521936
C         0.68793144668661    0.13562214368452   -0.71723584863196
