$hessian                                                                        
        0.1699431038  -0.0429809652   0.0619138557  -0.0803584761   0.1258665484
       -0.0065776064  -0.0797397169  -0.0761872815  -0.0977910536   0.0024683255
        0.0123373868  -0.0024115681  -0.0123132362  -0.0190356885   0.0448663724
       -0.0429809652   0.5235159083   0.0497229726   0.1833496937  -0.2812272425
        0.0238908630  -0.1156362294  -0.1126712299  -0.0955558605  -0.0235640795
       -0.0941296350   0.0027563299  -0.0011684195  -0.0354878009   0.0191856949
        0.0619138557   0.0497229726   0.0530908683   0.0072893400   0.0017244730
       -0.0017000565  -0.0708010537  -0.0562141516  -0.0625766309   0.0032163652
        0.0031258493   0.0041056236  -0.0016185073   0.0016408567   0.0070801955
       -0.0803584761   0.1833496937   0.0072893400   0.3601355241   0.0061134134
       -0.0018878089  -0.0797299123  -0.0137613641  -0.0153786092  -0.1169707197
       -0.2020101370  -0.0066617741  -0.0830764160   0.0263083941   0.0166388521
        0.1258665484  -0.2812272425   0.0017244730   0.0061134134   0.4694687910
       -0.0424692881   0.0422000255   0.0272609779   0.0204022319  -0.1441875542
       -0.2450041072   0.0032809586  -0.0299924331   0.0295015807   0.0170616246
       -0.0065776064   0.0238908630  -0.0017000565  -0.0018878089  -0.0424692881
        0.0333634554  -0.0353178119  -0.0002265305  -0.0149881274   0.0089521769
        0.0226548930  -0.0020531133   0.0348310503  -0.0038499375  -0.0146221582
       -0.0797397169  -0.1156362294  -0.0708010537  -0.0797299123   0.0422000255
       -0.0353178119   0.1678387197   0.0751107831   0.1255941772  -0.0093790594
       -0.0028376381   0.0014871870   0.0010099689   0.0011630588  -0.0209624985
       -0.0761872815  -0.1126712299  -0.0562141516  -0.0137613641   0.0272609779
       -0.0002265305   0.0751107831   0.1088606801   0.0119383818   0.0154942399
       -0.0357721119   0.0015442542  -0.0006563775   0.0123216838   0.0429580461
       -0.0977910536  -0.0955558605  -0.0625766309  -0.0153786092   0.0204022319
       -0.0149881274   0.1255941772   0.0119383818   0.3183353127  -0.0430913289
        0.0231155039   0.0061029792   0.0306668145   0.0400997429  -0.2468735337
        0.0024683255  -0.0235640795   0.0032163652  -0.1169707197  -0.1441875542
        0.0089521769  -0.0093790594   0.0154942399  -0.0430913289   0.1858468023
        0.0798782992  -0.0552608957  -0.0619653487   0.0723790945   0.0861836826
        0.0123373868  -0.0941296350   0.0031258493  -0.2020101370  -0.2450041072
        0.0226548930  -0.0028376381  -0.0357721119   0.0231155039   0.0798782992
        0.5106032195   0.0546777569   0.1126320890  -0.1356973654  -0.1035740031
       -0.0024115681   0.0027563299   0.0041056236  -0.0066617741   0.0032809586
       -0.0020531133   0.0014871870   0.0015442542   0.0061029792  -0.0552608957
        0.0546777569   0.0499204806   0.0628470509  -0.0622592997  -0.0580759701
       -0.0123132362  -0.0011684195  -0.0016185073  -0.0830764160  -0.0299924331
        0.0348310503   0.0010099689  -0.0006563775   0.0306668145  -0.0619653487
        0.1126320890   0.0628470509   0.1563450321  -0.0808148590  -0.1267264085
       -0.0190356885  -0.0354878009   0.0016408567   0.0263083941   0.0295015807
       -0.0038499375   0.0011630588   0.0123216838   0.0400997429   0.0723790945
       -0.1356973654  -0.0622592997  -0.0808148590   0.1293619018   0.0243686375
        0.0448663724   0.0191856949   0.0070801955   0.0166388521   0.0170616246
       -0.0146221582  -0.0209624985   0.0429580461  -0.2468735337   0.0861836826
       -0.1035740031  -0.0580759701  -0.1267264085   0.0243686375   0.3124914664
