 Entering Gaussian System
 *********************************************
 Gaussian 98:
 frequency output generated by the xtb code
 *********************************************
                         Standard orientation:
 --------------------------------------------------------------------
  Center     Atomic     Atomic              Coordinates (Angstroms)
  Number     Number      Type              X           Y           Z
 --------------------------------------------------------------------
    1          6             0       -0.249331   -1.116379    0.043201
    2          6             0       -0.970916    0.055470   -0.004894
    3          6             0        0.655101   -0.213539    0.732228
    4          6             0       -0.122783    1.138832   -0.053296
    5          6             0        0.687930    0.135617   -0.717238
 --------------------------------------------------------------------
     1 basis functions        1 primitive gaussians
     1 alpha electrons        1 beta electrons

 Harmonic frequencies (cm**-1), IR intensities (KM/Mole),
 Raman scattering activities (A**4/amu), Raman depolarization ratios,
 reduced masses (AMU), force constants (mDyne/A) and normal coordinates:
                      1                      2                      3
                        a                      a                      a 
 Frequencies --   217.5955               267.6166               519.5659
 Red. masses --    12.0107                12.0107                12.0107
 Frc consts  --     0.0000                 0.0000                 0.0000
 IR Inten    --     0.3429                 0.0976                 0.8004
 Raman Activ --     0.0000                 0.0000                 0.0000
 Depolar     --     0.0000                 0.0000                 0.0000
 Atom AN      X      Y      Z        X      Y      Z        X      Y      Z
   1   6    -0.31  -0.09   0.27    -0.16  -0.07   0.51     0.19   0.22  -0.04
   2   6     0.02   0.01   0.03    -0.00  -0.08  -0.57     0.01   0.10  -0.38
   3   6     0.28  -0.45  -0.15     0.10   0.09  -0.21     0.44  -0.30   0.23
   4   6    -0.31   0.14  -0.33     0.11  -0.08   0.48    -0.15   0.24  -0.04
   5   6     0.32   0.40   0.18    -0.05   0.14  -0.20    -0.48  -0.25   0.22
                      4                      5                      6
                        a                      a                      a 
 Frequencies --   664.1325               754.2109               992.8590
 Red. masses --    12.0107                12.0107                12.0107
 Frc consts  --     0.0000                 0.0000                 0.0000
 IR Inten    --     0.3215                 0.3379                 1.2977
 Raman Activ --     0.0000                 0.0000                 0.0000
 Depolar     --     0.0000                 0.0000                 0.0000
 Atom AN      X      Y      Z        X      Y      Z        X      Y      Z
   1   6    -0.01  -0.41   0.07    -0.34  -0.11  -0.21     0.40   0.11   0.20
   2   6     0.64  -0.04   0.00     0.26  -0.02  -0.00     0.02   0.34   0.03
   3   6    -0.34  -0.07   0.04     0.23   0.39  -0.30    -0.31  -0.28  -0.22
   4   6     0.04   0.40  -0.07    -0.33   0.15   0.20    -0.39   0.15   0.20
   5   6    -0.33   0.11  -0.05     0.17  -0.41   0.31     0.29  -0.32  -0.21
                      7                      8                      9
                        a                      a                      a 
 Frequencies --  1182.2037              1418.2074              1419.4544
 Red. masses --    12.0107                12.0107                12.0107
 Frc consts  --     0.0000                 0.0000                 0.0000
 IR Inten    --     1.0450                 1.1329                 0.2681
 Raman Activ --     0.0000                 0.0000                 0.0000
 Depolar     --     0.0000                 0.0000                 0.0000
 Atom AN      X      Y      Z        X      Y      Z        X      Y      Z
   1   6     0.29  -0.21   0.09     0.09  -0.51  -0.05     0.01   0.47   0.07
   2   6    -0.33   0.02  -0.00    -0.00   0.67  -0.07     0.45   0.04  -0.01
   3   6    -0.13   0.01  -0.54     0.15   0.13   0.11    -0.18  -0.06  -0.27
   4   6     0.31   0.17  -0.09    -0.14  -0.41  -0.04    -0.07  -0.56  -0.08
   5   6    -0.14   0.00   0.54    -0.10   0.13   0.05    -0.20   0.11   0.28
