[Molden Format]
[Title]
[Atoms] AU
C      1     6 -0.47116795158664E+00 -0.21096508913951E+01  0.81637123912949E-01
C      2     6 -0.18347650760307E+01  0.10482325692586E+00 -0.92482234294127E-02
C      3     6  0.12379618741110E+01 -0.40353106178857E+00  0.13837107265175E+01
C      4     6 -0.23202547361789E+00  0.21520810741100E+01 -0.10071544692439E+00
C      5     6  0.12999985168601E+01  0.25627951186380E+00 -0.13553841800865E+01
[GTO]
           1 0
 s           4   1.0000000000000000     
   51.049363095579913      -0.16312063210127389     
   8.7911227406887544      -0.19911024581000730     
  0.70640422258929825       0.31882047753655751     
  0.26922813413411617       0.12706504184240380     
 p           4   1.0000000000000000     
   5.8263656140800002       0.73716451545209605     
   1.5106896018720002       0.68216371614850257     
  0.53256483288000001       0.35783053929253711     
  0.21202323690600003        5.3983030275847881E-002

           2 0
 s           4   1.0000000000000000     
   51.049363095579913      -0.16312063210127389     
   8.7911227406887544      -0.19911024581000730     
  0.70640422258929825       0.31882047753655751     
  0.26922813413411617       0.12706504184240380     
 p           4   1.0000000000000000     
   5.8263656140800002       0.73716451545209605     
   1.5106896018720002       0.68216371614850257     
  0.53256483288000001       0.35783053929253711     
  0.21202323690600003        5.3983030275847881E-002

           3 0
 s           4   1.0000000000000000     
   51.049363095579913      -0.16312063210127389     
   8.7911227406887544      -0.19911024581000730     
  0.70640422258929825       0.31882047753655751     
  0.26922813413411617       0.12706504184240380     
 p           4   1.0000000000000000     
   5.8263656140800002       0.73716451545209605     
   1.5106896018720002       0.68216371614850257     
  0.53256483288000001       0.35783053929253711     
  0.21202323690600003        5.3983030275847881E-002

           4 0
 s           4   1.0000000000000000     
   51.049363095579913      -0.16312063210127389     
   8.7911227406887544      -0.19911024581000730     
  0.70640422258929825       0.31882047753655751     
  0.26922813413411617       0.12706504184240380     
 p           4   1.0000000000000000     
   5.8263656140800002       0.73716451545209605     
   1.5106896018720002       0.68216371614850257     
  0.53256483288000001       0.35783053929253711     
  0.21202323690600003        5.3983030275847881E-002

           5 0
 s           4   1.0000000000000000     
   51.049363095579913      -0.16312063210127389     
   8.7911227406887544      -0.19911024581000730     
  0.70640422258929825       0.31882047753655751     
  0.26922813413411617       0.12706504184240380     
 p           4   1.0000000000000000     
   5.8263656140800002       0.73716451545209605     
   1.5106896018720002       0.68216371614850257     
  0.53256483288000001       0.35783053929253711     
  0.21202323690600003        5.3983030275847881E-002

[MO]
Sym=     1a
Ene=  -0.76008894842061969     
Spin= Alpha
Occup=     2.00000000
           1  0.24458922717011242     
           2   2.3901335918415888E-002
           3  0.13148249795217998     
           4   2.4823552405068418E-003
           5  0.29191049161310734     
           6  0.14842897667844110     
           7  -8.4752472976416630E-003
           8   5.9189244290963421E-004
           9  0.26320724589925348     
          10  -8.2803477969289829E-002
          11   1.6835857565480564E-002
          12 -0.10253334411814687     
          13  0.24419562144829163     
          14   8.9947916440491736E-003
          15 -0.13319495553306632     
          16  -1.3263035525742694E-003
          17  0.26367936543723508     
          18  -8.6461214440388123E-002
          19  -7.3628909196935067E-003
          20  0.10097398655236514     
Sym=     2a
Ene=  -0.66453512777217061     
Spin= Alpha
Occup=     2.00000000
           1  0.42769694215619608     
           2   7.1981840692684667E-003
           3   4.4309177385057227E-002
           4   5.8803442675383608E-002
           5  -2.9400612376882197E-003
           6  -1.8028002659196792E-002
           7 -0.31442745944526240     
           8   6.5652962168940052E-002
           9  0.15055377322060665     
          10  -6.5952595037888181E-002
          11 -0.20802551616957654     
          12  -7.3913392017927262E-004
          13 -0.43018434981047315     
          14  -4.8434158942990284E-004
          15   4.6054841816110741E-002
          16   5.7237852255442728E-002
          17 -0.14606860500041280     
          18   4.3742109784612661E-002
          19 -0.21590612289944597     
          20   2.6248792978645153E-003
Sym=     3a
Ene=  -0.64449334828981708     
Spin= Alpha
Occup=     2.00000000
           1   8.6832098797315460E-002
           2 -0.25352144821882150     
           3   5.5809937361790692E-002
           4  -1.2138441592889154E-002
           5  0.48698918092415461     
           6  -5.6950534321935767E-002
           7   7.7314170335146158E-004
           8  -1.0340661172998161E-003
           9 -0.32152816310103743     
          10 -0.15341983223909103     
          11  -6.1976024976204708E-003
          12  0.12477599402302121     
          13   8.1256528290095151E-002
          14 -0.25762886195009838     
          15  -2.6810136569863224E-002
          16   9.3513238660988072E-003
          17 -0.32451115690554677     
          18 -0.14899764885571554     
          19   2.0396874209380481E-002
          20 -0.12712312271043799     
Sym=     4a
Ene=  -0.60534894245257342     
Spin= Alpha
Occup=     2.00000000
           1 -0.12719908937676916     
           2   6.3161439877786843E-002
           3   5.1430540985541624E-003
           4  0.28791955800411101     
           5   2.2831012198089168E-003
           6   7.1765877630369955E-003
           7  0.16393772498385420     
           8  0.31686943047209448     
           9  0.38096516130731439     
          10  -9.0237336060462553E-002
          11   4.8965862451862123E-002
          12  0.17112852842212453     
          13  0.12391105028225124     
          14  -6.7593441183322667E-002
          15   1.3904637288269392E-002
          16  0.28650670658443711     
          17 -0.37931924927128308     
          18   9.3090481758770244E-002
          19   3.8737627314022277E-002
          20  0.17485356957531842     
Sym=     5a
Ene=  -0.55091977384385837     
Spin= Alpha
Occup=     2.00000000
           1  -1.1374688581995787E-003
           2  0.39638203815743589     
           3  -5.2612659535128045E-002
           4  -5.4489747611549788E-002
           5   1.1889409817602767E-003
           6   2.0617078215922825E-002
           7  0.37712831804690883     
           8 -0.13499568167529136     
           9   3.5047178419559032E-002
          10   4.7336174549565721E-002
          11 -0.30159971699368093     
          12  -6.4069065485537313E-002
          13   1.1251642106624709E-003
          14 -0.40105724872672893     
          15  -8.3302579438446211E-003
          16  -5.4564906811200589E-002
          17  -3.5766872526303450E-002
          18  -7.6950066645395165E-002
          19 -0.30105297600912534     
          20  -6.2469681644978542E-002
Sym=     6a
Ene=  -0.52106427990528104     
Spin= Alpha
Occup=     2.00000000
           1 -0.33987331597350151     
           2  -8.9112973722024577E-002
           3  0.21703809685889139     
           4 -0.23655461889227186     
           5  0.29524175704028155     
           6 -0.18559627130954645     
           7   8.2421604766634675E-003
           8  -1.0320855248656189E-003
           9   7.3138010900577033E-002
          10  0.22304500768470609     
          11  0.25977544383314261     
          12 -0.14333082974553482     
          13 -0.34214356801321427     
          14 -0.11139386911625196     
          15 -0.20499687565950422     
          16  0.23497166290249483     
          17   7.7464217090004325E-002
          18  0.19153492154212828     
          19 -0.27680087809092824     
          20  0.14740315540478741     
Sym=     7a
Ene=  -0.48680976747672738     
Spin= Alpha
Occup=     2.00000000
           1  0.17182526035049955     
           2  -9.7875742097637858E-002
           3 -0.18723543391583386     
           4  0.15883110950278886     
           5  0.35388344254096238     
           6 -0.47197368770734099     
           7   2.5519006378715660E-002
           8  -5.6523405107311185E-003
           9  0.21846855871350307     
          10  0.31979056679902512     
          11 -0.17266835043675477     
          12   2.4790799720113981E-002
          13  0.17349158629996694     
          14  -7.3204648105997763E-002
          15  0.19690751645553131     
          16 -0.16143317387329553     
          17  0.21750885543081419     
          18  0.33736689705949907     
          19  0.13497301675871595     
          20  -1.9159583143629449E-002
Sym=     8a
Ene=  -0.47918405411800502     
Spin= Alpha
Occup=     2.00000000
           1  0.38084468317285169     
           2  -2.8751932495667057E-002
           3 -0.29419698865423249     
           4 -0.31481471678431971     
           5  -9.1538374546358506E-002
           6   1.0808617854277355E-002
           7  -1.2807316663570388E-003
           8   2.7864810398310243E-003
           9 -0.21232487660521193     
          10   7.1635520503161812E-002
          11  0.15969765617750889     
          12 -0.26232889161922307     
          13  0.37870737333655113     
          14   3.7089483799878347E-003
          15  0.29630796185363012     
          16  0.31844022771720709     
          17 -0.20715355430986632     
          18   5.2180801743933636E-002
          19 -0.16318618948153232     
          20  0.26219402452234647     
Sym=     9a
Ene=  -0.46632418357860278     
Spin= Alpha
Occup=     2.00000000
           1  -5.0745516261559518E-003
           2   4.7401537807156433E-002
           3   1.2646693692698968E-002
           4  0.16875055111502740     
           5   4.0586366847905619E-003
           6  -1.2396688773177607E-003
           7   8.0560534009936249E-002
           8  0.47041585895334653     
           9 -0.42482220326522308     
          10 -0.30308854979674160     
          11  -4.0017023065607685E-002
          12 -0.27775690326980668     
          13   1.3654694115287742E-003
          14  -4.4411376174076346E-002
          15   1.6632380685877753E-002
          16  0.16411559109500617     
          17  0.42499995374677008     
          18  0.29950941003712828     
          19  -7.0250678518582105E-002
          20 -0.27492026187490015     
Sym=    10a
Ene=  -0.41941603955886703     
Spin= Alpha
Occup=     1.00000000
           1 -0.12296226378927416     
           2   7.0454822415792304E-002
           3  0.10155500798476935     
           4  0.26503448571603672     
           5   7.6910900718251379E-002
           6 -0.14132139935750659     
           7   3.8407747462968745E-003
           8  -6.3485280078918209E-003
           9 -0.30424488002982375     
          10  -4.2277781880976570E-002
          11 -0.19674769720573917     
          12 -0.52211313205278853     
          13 -0.11030240346128536     
          14   6.2223952034357113E-002
          15  -9.0090365227766186E-002
          16 -0.26187483978860593     
          17 -0.30484685852028859     
          18  -3.1595928237636330E-002
          19  0.19490936344250481     
          20  0.51926681941251884     
Sym=    11a
Ene=  -0.41481933143242616     
Spin= Alpha
Occup=     1.00000000
           1  0.32688145633494858     
           2  -4.7008002468687853E-002
           3 -0.59659698231109393     
           4   2.2835865728378483E-002
           5   2.0712828299191185E-003
           6   9.0558945883109174E-003
           7  0.22125566998068341     
           8   4.7224854005509152E-002
           9  -3.6862805564051471E-002
          10   1.1472126723350550E-002
          11  0.14579866606887126     
          12   3.0775297004100640E-002
          13 -0.33087054771113694     
          14  -1.6780863935907803E-002
          15 -0.60171318637030669     
          16   1.5067964646376775E-002
          17   2.7095779767176809E-002
          18   3.7137046960122612E-003
          19  0.15668183189182786     
          20   4.7360998627750492E-002
Sym=    12a
Ene=  -0.32293524422294129     
Spin= Alpha
Occup=     0.00000000
           1  -2.5261621910549436E-002
           2  0.44042626835544846     
           3  -4.9665146077756746E-002
           4 -0.18084020068859766     
           5  0.22388846649651181     
           6 -0.66054590836059257     
           7   3.6527570173755748E-002
           8   9.1650785654382814E-003
           9   1.8372143127809593E-002
          10 -0.34669135231356041     
          11   3.7375104603939259E-002
          12   7.4597311933404381E-002
          13  -2.4800124527574678E-002
          14  0.44177302417030412     
          15   2.3229934388423893E-003
          16  0.17540412084067755     
          17   1.3691611837988010E-002
          18 -0.36670025579668286     
          19  -2.8408597705493646E-005
          20  -7.6048375235808763E-002
Sym=    13a
Ene=  -0.26697151746676673     
Spin= Alpha
Occup=     0.00000000
           1  -1.1737886361602929E-002
           2  -1.7881465057511464E-002
           3  -1.4769581641923426E-004
           4 -0.29656971250536607     
           5  -2.1465381000103138E-003
           6   4.1272751636919408E-003
           7  -3.1240976962683645E-002
           8  0.84962975050024359     
           9   2.0196477153555038E-002
          10  0.45773683481193134     
          11  -9.0718561114587218E-002
          12   1.5541703766991995E-003
          13   1.3348186923698390E-002
          14   3.3045793796179341E-003
          15  -1.1536213750514533E-003
          16 -0.30922178759572283     
          17  -2.2534267641168719E-002
          18 -0.45184543908753555     
          19  -4.3057275282505005E-002
          20   1.0749802481254407E-003
Sym=    14a
Ene=  -0.20889459308126498     
Spin= Alpha
Occup=     0.00000000
           1   7.5057378018302409E-002
           2   3.2480169525824568E-002
           3  -6.1879513917733435E-002
           4 -0.13703631237136843     
           5 -0.11590713727836308     
           6 -0.14451498226902046     
           7   3.4870800355006185E-002
           8  0.13203374215385580     
           9  0.20049992355652727     
          10 -0.51725529909558576     
          11  0.56728694434397764     
          12   8.3924780460131562E-002
          13 -0.11895493560670511     
          14 -0.29008107590376087     
          15  0.23947865751625710     
          16 -0.68489812878670475     
          17   1.6869980883045779E-002
          18  0.17439439097812887     
          19 -0.18631152696584100     
          20  0.21588346575038256     
Sym=    15a
Ene=  -0.20554207082639644     
Spin= Alpha
Occup=     0.00000000
           1  0.10886119858183305     
           2  0.32267857070844919     
           3  0.21979266867838151     
           4 -0.66883393623537446     
           5  0.13942227173645880     
           6  0.17266815787072187     
           7   1.4038699309251751E-002
           8  0.11969691933066708     
           9  -5.1283540682825715E-002
          10 -0.11730337827133715     
          11 -0.26839665973819971     
          12  0.20357442522831817     
          13  -5.5781519456979442E-002
          14   1.3442309438893553E-002
          15  -9.5786846620615068E-002
          16  -3.3321293601069869E-002
          17 -0.20779341856350975     
          18  0.55479779560140186     
          19  0.53832978674554766     
          20   6.8514338276048373E-002
Sym=    16a
Ene=   -1.3244995065173380E-002
Spin= Alpha
Occup=     0.00000000
           1  0.24637406990477589     
           2  0.43059934698729802     
           3  0.14973609851760225     
           4  0.14353963161845087     
           5   6.0150486504111202E-003
           6  -5.5600086055271752E-003
           7 -0.17755568072235803     
           8  -4.6102781933929325E-002
           9  0.19146344575018742     
          10  0.26231888796219299     
          11  0.55676679996655509     
          12 -0.48200759482895056     
          13 -0.24296651641181086     
          14 -0.39997133701757726     
          15  0.19366219103963678     
          16  0.13808474805327264     
          17 -0.20066050419750259     
          18 -0.18002158169617322     
          19  0.58510878008612210     
          20 -0.49331944104575248     
Sym=    17a
Ene=    6.5304079078071245E-002
Spin= Alpha
Occup=     0.00000000
           1 -0.13558804700881785     
           2 -0.52680909569042156     
           3  -7.4755034491025742E-003
           4 -0.33349396802011866     
           5 -0.52013906511299524     
           6 -0.34773695966198293     
           7   2.1949900967274408E-002
           8  -4.0668679909404182E-004
           9  0.38324994767260862     
          10 -0.36330303359698912     
          11 -0.38822144227769984     
          12 -0.20226405433135172     
          13 -0.14247650188314584     
          14 -0.53054237895689305     
          15   7.3324327611428999E-002
          16  0.32442486234315254     
          17  0.37719621501158057     
          18 -0.32361876660224476     
          19  0.43613545641036061     
          20  0.18132488951979131     
Sym=    18a
Ene=   0.21802574004402259     
Spin= Alpha
Occup=     0.00000000
           1  -4.3887194878322495E-003
           2  0.49713823367743176     
           3  -3.3086369591597331E-002
           4  0.23181484402809605     
           5  -7.5028378415174929E-003
           6  -3.6311456488267634E-002
           7 -0.55866643158752238     
           8   1.8642969474104154E-002
           9 -0.58684520345730795     
          10  0.16867884910592940     
          11  0.12469429933815712     
          12  0.63367824937257278     
          13   9.8699042028123005E-003
          14 -0.50883949850563792     
          15   1.7739789178083429E-002
          16  0.22561210354732861     
          17  0.58814360369364316     
          18 -0.16577963236911619     
          19  0.14758915860726698     
          20  0.62885959501641175     
Sym=    19a
Ene=   0.36416794311691092     
Spin= Alpha
Occup=     0.00000000
           1 -0.64542199624978591     
           2  0.20996125963541859     
           3 -0.54740994953852173     
           4 -0.12174045380451803     
           5   1.1495095343162270E-002
           6  -4.5295613020801470E-002
           7 -0.96307915522425980     
           8   2.6915997501621398E-002
           9  0.29556321546769626     
          10 -0.18721877802216061     
          11 -0.14808190852574865     
          12 -0.28373906040636776     
          13  0.62779516669424451     
          14 -0.26466406752438987     
          15 -0.50120553476918461     
          16 -0.11387142022985569     
          17 -0.28777489447920229     
          18  0.16806339397358969     
          19 -0.16388339504571744     
          20 -0.27498911815772537     
Sym=    20a
Ene=   0.41856581058048392     
Spin= Alpha
Occup=     0.00000000
           1 -0.58829605278046404     
           2   4.7338183158015919E-002
           3 -0.69609335836039488     
           4  -7.3602867059863283E-002
           5  0.84150777794310405     
           6  0.64887634964780183     
           7  -2.5313730414467030E-002
           8  -3.4301363415774425E-004
           9  0.21584313825965948     
          10 -0.17834979451829805     
          11 -0.13097536388090275     
          12 -0.12247035594527024     
          13 -0.60686402887362478     
          14  0.12612131300382787     
          15  0.70212564571817149     
          16   7.7424861244892063E-002
          17  0.23513049783793263     
          18 -0.17660114914451974     
          19  0.15536758495167277     
          20  0.13408725099646601     
