[Molden Format]
[Title]
[Atoms] AU
C      1     6  0.62781169462260E+00 -0.19391178111359E-01 -0.14502720690702E-01
C      2     6 -0.16726294861160E+01 -0.12770963527797E+01 -0.42970896819352E-01
C      3     6 -0.15879257208398E+01  0.13783136898479E+01  0.11577660996814E+00
H      4     1  0.26327435123332E+01 -0.81826158956882E-01 -0.58302992458081E-01
[GTO]
           1 0
 s           4   1.0000000000000000     
   51.049363095579913      -0.16312063210127389     
   8.7911227406887544      -0.19911024581000730     
  0.70640422258929825       0.31882047753655751     
  0.26922813413411617       0.12706504184240380     
 p           4   1.0000000000000000     
   5.8263656140800002       0.73716451545209605     
   1.5106896018720002       0.68216371614850257     
  0.53256483288000001       0.35783053929253711     
  0.21202323690600003        5.3983030275847881E-002

           2 0
 s           4   1.0000000000000000     
   51.049363095579913      -0.16312063210127389     
   8.7911227406887544      -0.19911024581000730     
  0.70640422258929825       0.31882047753655751     
  0.26922813413411617       0.12706504184240380     
 p           4   1.0000000000000000     
   5.8263656140800002       0.73716451545209605     
   1.5106896018720002       0.68216371614850257     
  0.53256483288000001       0.35783053929253711     
  0.21202323690600003        5.3983030275847881E-002

           3 0
 s           4   1.0000000000000000     
   51.049363095579913      -0.16312063210127389     
   8.7911227406887544      -0.19911024581000730     
  0.70640422258929825       0.31882047753655751     
  0.26922813413411617       0.12706504184240380     
 p           4   1.0000000000000000     
   5.8263656140800002       0.73716451545209605     
   1.5106896018720002       0.68216371614850257     
  0.53256483288000001       0.35783053929253711     
  0.21202323690600003        5.3983030275847881E-002

           4 0
 s           3   1.0000000000000000     
   3.3702276975336001       0.27359110588908298     
  0.61389118221497996       0.26460540653860526     
  0.16614291148415999        8.2465947534082318E-002

[MO]
Sym=     1a
Ene=  -0.69188554420806458     
Spin= Alpha
Occup=     2.00000000
           1  0.37709699608422231     
           2 -0.18562309899642526     
           3   5.6881161140586818E-003
           4   4.1899394623629354E-003
           5  0.36876065459126828     
           6   8.8649950771287775E-002
           7  0.14057023472670332     
           8   6.6662297337839096E-003
           9  0.36861094788906457     
          10   7.9314733516907654E-002
          11 -0.14553133261246110     
          12  -1.0433369704063352E-002
          13   5.3424503159112346E-002
Sym=     2a
Ene=  -0.58597159521981090     
Spin= Alpha
Occup=     2.00000000
           1  0.46339422837230931     
           2  0.30939436464610348     
           3  -1.0092405321107521E-002
           4  -6.8523882454231107E-003
           5 -0.20019916057641726     
           6  0.16894935451278803     
           7  -8.3593624554332724E-002
           8  -8.4929589031896759E-003
           9 -0.20121006311969250     
          10  0.17339177045248394     
          11   7.2619338148963417E-002
          12   8.5694751421669564E-004
          13  0.40488635509223175     
Sym=     3a
Ene=  -0.55416259943836033     
Spin= Alpha
Occup=     2.00000000
           1  -5.4361275469935462E-004
           2  -1.5334413687953045E-002
           3 -0.45664029618749347     
           4  -2.7283685738195673E-002
           5  0.47158321799682434     
           6  0.11066065616936120     
           7 -0.21974554987905334     
           8  -1.5569588358015488E-002
           9 -0.47124740160891948     
          10 -0.12454135329742226     
          11 -0.21212991550239135     
          12  -1.0247247579599038E-002
          13  -6.7861736988468024E-004
Sym=     4a
Ene=  -0.50250896026417868     
Spin= Alpha
Occup=     2.00000000
           1  -2.8216589200651294E-004
           2   1.1258213553321348E-002
           3  -3.2349406399988408E-002
           4  0.53510237008539729     
           5   2.7409250942405473E-004
           6   9.1862466868961445E-003
           7  -2.8128811985212943E-002
           8  0.46731802140138107     
           9   2.7314426310309618E-004
          10   9.1657619301944021E-003
          11  -2.8289750004380915E-002
          12  0.46660930830520814     
          13   3.4583620020908935E-004
Sym=     5a
Ene=  -0.48400065874317827     
Spin= Alpha
Occup=     2.00000000
           1   7.7860968092534746E-002
           2 -0.35309250661035091     
           3   1.1077197247289297E-002
           4   8.4164031074418898E-003
           5 -0.24031441771900713     
           6  0.44892789027387298     
           7  -9.9854043240157536E-002
           8  -1.4762533202980210E-002
           9 -0.23964114947911047     
          10  0.45402317884974280     
          11   7.2560932973387671E-002
          12  -4.4475318331209162E-003
          13 -0.34985882584951877     
Sym=     6a
Ene=  -0.40481320888224809     
Spin= Alpha
Occup=     1.96720306
           1  -3.0868528499873685E-004
           2  -1.6341776143484060E-002
           3 -0.50886707060634873     
           4  -3.0419118044098352E-002
           5 -0.34749929914301741     
           6  0.43663363668884225     
           7  0.23962603780616037     
           8   5.4611540130338875E-003
           9  0.35083653715369806     
          10 -0.42047858035358732     
          11  0.27065457626302841     
          12   2.5047193106411455E-002
          13   7.3548189421248944E-005
Sym=     7a
Ene=  -0.39838318151237112     
Spin= Alpha
Occup=     1.03279694
           1  -1.2977770987926063E-002
           2  -1.2657207117854717E-002
           3   2.6224336491343834E-003
           4   4.2428609741392524E-004
           5  0.38410801641370845     
           6   2.9615360339539992E-003
           7 -0.59790156089162694     
           8  -3.6200731163388587E-002
           9  0.38181774967091048     
          10   4.4936624165756910E-002
          11  0.59432138516003297     
          12   3.4991984800663428E-002
          13   2.0795731813523111E-003
Sym=     8a
Ene=  -0.27482728713500765     
Spin= Alpha
Occup=     0.00000000
           1  -4.0608517640191417E-004
           2   1.7854126726690719E-002
           3  -5.3241762989888808E-002
           4  0.88106266424503943     
           5  -2.3972084922448204E-005
           6  -9.7044214375133428E-003
           7   2.8763054994691416E-002
           8 -0.47593795954327300     
           9  -2.4002478326336098E-005
          10  -9.8652370506369276E-003
          11   2.9232729185839676E-002
          12 -0.48372958047654402     
          13   2.5949646451467039E-004
Sym=     9a
Ene=  -0.26948914868589385     
Spin= Alpha
Occup=     0.00000000
           1   2.2401177589215780E-006
           2  -9.7277281822883292E-005
           3   2.8949220531602316E-004
           4  -4.7995393523632092E-003
           5   9.5948048223540360E-007
           6   1.6200262324899965E-002
           7  -4.7384825290891421E-002
           8  0.78396364581200795     
           9  -7.3223553218288976E-007
          10  -1.6110354389659354E-002
          11   4.7116357900237903E-002
          12 -0.77954193891189105     
          13  -1.4605504843155579E-006
Sym=    10a
Ene=   -4.6931603902216068E-003
Spin= Alpha
Occup=     0.00000000
           1  -2.5173260661071279E-003
           2  -2.4456723068162777E-002
           3 -0.75439292950679959     
           4  -4.5093109335413287E-002
           5   1.1434164093932235E-002
           6 -0.65785210287411533     
           7  0.43210103989397652     
           8   3.9713259601647795E-002
           9  -1.0700923833616829E-002
          10  0.68627791039365493     
          11  0.39015580104458786     
          12   9.3988978896431333E-003
          13   1.9247398322415909E-003
Sym=    11a
Ene=    8.7853029189399620E-002
Spin= Alpha
Occup=     0.00000000
           1  -1.1095020559148081     
           2 -0.23337766310899835     
           3   8.8617312011160937E-003
           4   4.6998272373695339E-003
           5  0.15663816431768451     
           6  0.36177980715770630     
           7   8.2526729732138815E-002
           8  -2.3340717372052964E-003
           9  0.15751576573553727     
          10  0.35264956851077933     
          11 -0.10764473549064650     
          12  -1.3639977510214304E-002
          13  0.93345559147216817     
Sym=    12a
Ene=   0.37444188739961182     
Spin= Alpha
Occup=     0.00000000
           1   4.6749839643324837E-004
           2  -1.2930056084838508E-002
           3 -0.47383428474956718     
           4  -2.8371083693404263E-002
           5 -0.75325106368150740     
           6 -0.27629381116433732     
           7 -0.81165669388215123     
           8  -4.3348038413474815E-002
           9  0.75434433693473435     
          10  0.22516800450097352     
          11 -0.82791105666224851     
          12  -5.4694407420061444E-002
          13  -2.0980801351019778E-003
Sym=    13a
Ene=   0.60166784364604231     
Spin= Alpha
Occup=     0.00000000
           1  0.35301652734085992     
           2  -1.3116681899484692     
           3   3.9315644234327277E-002
           4   2.9109077834206999E-002
           5 -0.44087259343845903     
           6 -0.49782607073728763     
           7 -0.21315770285980959     
           8  -2.5311501694126035E-003
           9 -0.43753793140077812     
          10 -0.48152139264385091     
          11  0.24042160853648792     
          12   2.4546989322365900E-002
          13  0.76374460037835235     
