$hessian                                                                        
        0.9987787714  -0.0351173200  -0.0211954873  -0.3284916389  -0.2134745635
       -0.0064244938  -0.3239709667   0.2387164968   0.0208122847  -0.3463161658
        0.0098753866   0.0068076964
       -0.0351173200  -0.1331135870  -0.0112413416   0.1776544531   0.0837696350
        0.0023281103  -0.1524102160   0.0813382840   0.0089702796   0.0098730829
       -0.0319943320  -0.0000570483
       -0.0211954873  -0.0112413416   0.0637515334   0.0172383972   0.0104038016
       -0.0147732940  -0.0028782658   0.0009184396  -0.0149378732   0.0068353559
       -0.0000808996  -0.0340403661
       -0.3284916389   0.1776544531   0.0172383972   0.0447908499   0.0441937836
        0.0018195588   0.2954583629  -0.2141413436  -0.0189845911  -0.0117575739
       -0.0077068931  -0.0000733650
       -0.2134745635   0.0837696350   0.0104038016   0.0441937836   0.3951233260
        0.0227467679   0.1640535838  -0.4839268313  -0.0328568640   0.0052271961
        0.0050338703  -0.0002937054
       -0.0064244938   0.0023281103  -0.0147732940   0.0018195588   0.0227467679
        0.0048746100   0.0038914167  -0.0250450940   0.0019448369   0.0007135183
       -0.0000297842   0.0079538470
       -0.3239709667  -0.1524102160  -0.0028782658   0.2954583629   0.1640535838
        0.0038914167   0.0398715510  -0.0202759606  -0.0019580015  -0.0113589472
        0.0086325928   0.0009448507
        0.2387164968   0.0813382840   0.0009184396  -0.2141413436  -0.4839268313
       -0.0250450940  -0.0202759606   0.3978403469   0.0242483066  -0.0042991926
        0.0047482004  -0.0001216523
        0.0208122847   0.0089702796  -0.0149378732  -0.0189845911  -0.0328568640
        0.0019448369  -0.0019580015   0.0242483066   0.0050457654   0.0001303079
       -0.0003617222   0.0079472709
       -0.3463161658   0.0098730829   0.0068353559  -0.0117575739   0.0052271961
        0.0007135183  -0.0113589472  -0.0042991926   0.0001303079   0.3694326869
       -0.0108010864  -0.0076791821
        0.0098753866  -0.0319943320  -0.0000808996  -0.0077068931   0.0050338703
       -0.0000297842   0.0086325928   0.0047482004  -0.0003617222  -0.0108010864
        0.0222122614   0.0004724060
        0.0068076964  -0.0000570483  -0.0340403661  -0.0000733650  -0.0002937054
        0.0079538470   0.0009448507  -0.0001216523   0.0079472709  -0.0076791821
        0.0004724060   0.0181392483
