      -----------------------------------------------------------      
     |                   =====================                   |     
     |                           x T B                           |     
     |                   =====================                   |     
     |                         S. Grimme                         |     
     |          Mulliken Center for Theoretical Chemistry        |     
     |                    University of Bonn                     |     
      -----------------------------------------------------------      

   * xtb version 6.2.2 (9d81278992624c895f80dd42a50cac0aa55982e2) compiled by '@Darwin' on 04/03/2020

   xtb is free software: you can redistribute it and/or modify it under
   the terms of the GNU Lesser General Public License as published by
   the Free Software Foundation, either version 3 of the License, or
   (at your option) any later version.
   
   xtb is distributed in the hope that it will be useful,
   but WITHOUT ANY WARRANTY; without even the implied warranty of
   MERCHANTABILITY or FITNESS FOR A PARTICULAR PURPOSE.  See the
   GNU Lesser General Public License for more details.
   
   Cite this work as:
   * S. Grimme, C. Bannwarth, P. Shushkov, J. Chem. Theory Comput., 2017,
     13, 1989-2009. DOI: 10.1021/acs.jctc.7b00118
   * C. Bannwarth, S. Ehlert and S. Grimme., J. Chem. Theory Comput., 2019,
     15, 1652-1671. DOI: 10.1021/acs.jctc.8b01176
   * P. Pracht, E. Caldeweyher, S. Ehlert, S. Grimme, ChemRxiv, 2019, preprint.
     DOI: 10.26434/chemrxiv.8326202.v1
   
   for DFT-D4:
   * E. Caldeweyher, C. Bannwarth and S. Grimme, J. Chem. Phys., 2017,
     147, 034112. DOI: 10.1063/1.4993215
   * E. Caldeweyher, S. Ehlert, A. Hansen, H. Neugebauer, S. Spicher,
     C. Bannwarth and S. Grimme, J. Chem. Phys., 2019, 150, 154122.
     DOI: 10.1063/1.5090222
   
   for sTDA-xTB:
   * S. Grimme and C. Bannwarth, J. Chem. Phys., 2016, 145, 054103.
     DOI: 10.1063/1.4959605
   
   in the mass-spec context:
   * V. Asgeirsson, C. Bauer and S. Grimme, Chem. Sci., 2017, 8, 4879.
     DOI: 10.1039/c7sc00601b
   
   for metadynamics refer to:
   * S. Grimme, J. Chem. Theory Comput., 2019, 155, 2847-2862
     DOI: 10.1021/acs.jctc.9b00143
   
   with help from (in alphabetical order)
   C. Bannwarth, F. Bohle, G. Brandenburg, E. Caldeweyher, M. Checinski,
   S. Dohm, S. Ehlert, S. Ehrlich, F. März, H. Neugebauer, J. Pisarek,
   P. Pracht, P. Shushkov, and S. Spicher.
   
 * started run on 2020/05/12 at 11:43:51.619     

           -------------------------------------------------
          |                Calculation Setup                |
           -------------------------------------------------

          program call               : xtb --input H1C3_2_S_1.input H1C3_2_S_1.xyz --ohess --molden --namespace H1C3_2_S_1 output.out
          calculation namespace      : H1C3_2_S_1
          coordinate file            : H1C3_2_S_1.xyz
          number of atoms            :                     4
          number of electrons        :                    13
          charge                     :                     0
          spin                       :                   0.5
          first test random number   :      0.41735375193853

   ID    Z sym.   atoms
    1    6 C      1-3
    2    1 H      4

           -------------------------------------------------
          |                 G F N 2 - x T B                 |
           -------------------------------------------------

        Reference                      10.1021/acs.jctc.8b01176
      * Hamiltonian:
        H0-scaling (s, p, d)           1.850000    2.230000    2.230000
        zeta-weighting                 0.500000
      * Dispersion:
        s8                             2.700000
        a1                             0.520000
        a2                             5.000000
        s9                             5.000000
      * Repulsion:
        kExp                           1.500000    1.000000
        rExp                           1.000000
      * Coulomb:
        alpha                          2.000000
        third order                    shell-resolved
        anisotropic                    true
        a3                             3.000000
        a5                             4.000000
        cn-shift                       1.200000
        cn-exp                         4.000000
        max-rad                        5.000000


          ...................................................
          :                      SETUP                      :
          :.................................................:
          :  # basis functions                  13          :
          :  # atomic orbitals                  13          :
          :  # shells                            7          :
          :  # electrons                        13          :
          :  max. iterations                   250          :
          :  Hamiltonian                  GFN2-xTB          :
          :  restarted?                      false          :
          :  GBSA solvation                  false          :
          :  PC potential                    false          :
          :  electronic temp.          300.0000000     K    :
          :  accuracy                    1.0000000          :
          :  -> integral cutoff          0.2500000E+02      :
          :  -> integral neglect         0.1000000E-07      :
          :  -> SCF convergence          0.1000000E-05 Eh   :
          :  -> wf. convergence          0.1000000E-03 e    :
          :  Broyden damping             0.4000000          :
          ...................................................

 iter      E             dE          RMSdq      gap      omega  full diag
   1     -6.6122871 -0.661229E+01  0.890E+00    1.60       0.0  T
   2     -6.6090374  0.324968E-02  0.526E+00    1.78       1.0  T
   3     -6.4828836  0.126154E+00  0.545E+00    1.10       1.0  T
   4     -6.6130789 -0.130195E+00  0.859E-01    1.81       1.0  T
   5     -6.6148464 -0.176755E-02  0.114E+00    1.70       1.0  T
   6     -6.5927219  0.221245E-01  0.297E+00    1.89       1.0  T
   7     -6.6156384 -0.229165E-01  0.544E-01    1.78       1.0  T
   8     -6.6158486 -0.210237E-03  0.420E-01    1.78       1.0  T
   9     -6.6160160 -0.167427E-03  0.189E-01    1.77       1.0  T
  10     -6.6160501 -0.341087E-04  0.606E-02    1.76       1.0  T
  11     -6.6160545 -0.438662E-05  0.191E-02    1.76       2.6  T
  12     -6.6160549 -0.388926E-06  0.269E-03    1.76      18.6  T
  13     -6.6160549 -0.101951E-07  0.420E-04    1.76     119.1  T
  14     -6.6160549  0.333307E-10  0.422E-04    1.76     118.6  T

   *** convergence criteria satisfied after 14 iterations ***

         #    Occupation            Energy/Eh            Energy/eV
      -------------------------------------------------------------
         1        2.0000           -0.6848339             -18.6353
         2        2.0000           -0.5791025             -15.7582
         3        2.0000           -0.5539188             -15.0729
         4        2.0000           -0.5101269             -13.8813
         5        2.0000           -0.4483253             -12.1996
         6        1.8292           -0.4197811             -11.4228
         7        1.1708           -0.4167784             -11.3411 (HOMO)
         8                         -0.3520489              -9.5797 (LUMO)
         9                         -0.3008289              -8.1860
        10                         -0.1011129              -2.7514
        11                          0.1299794               3.5369
        12                          0.1495713               4.0700
        13                          0.1500972               4.0844
      -------------------------------------------------------------
                  HL-Gap            0.0647295 Eh            1.7614 eV
             Fermi-level           -0.4013467 Eh          -10.9212 eV

 SCC (total)                   0 d,  0 h,  0 min,  0.003 sec
 SCC setup                      ...        0 min,  0.000 sec (  4.365%)
 Dispersion                     ...        0 min,  0.000 sec (  0.533%)
 integral evaluation            ...        0 min,  0.001 sec ( 30.547%)
 zeroth order Hamiltonian       ...        0 min,  0.000 sec (  0.425%)
 iterations                     ...        0 min,  0.001 sec ( 37.985%)
 molecular gradient             ...        0 min,  0.001 sec ( 24.293%)
 printout                       ...        0 min,  0.000 sec (  1.518%)

         :::::::::::::::::::::::::::::::::::::::::::::::::::::
         ::                     SUMMARY                     ::
         :::::::::::::::::::::::::::::::::::::::::::::::::::::
         :: total energy              -6.556875531140 Eh    ::
         :: gradient norm              0.199859456106 Eh/a0 ::
         :: HOMO-LUMO gap              1.761379353952 eV    ::
         ::.................................................::
         :: SCC energy                -6.616054934818 Eh    ::
         :: -> isotropic ES           -0.010411928899 Eh    ::
         :: -> anisotropic ES          0.000132495292 Eh    ::
         :: -> anisotropic XC          0.006696506741 Eh    ::
         :: -> dispersion             -0.001232033068 Eh    ::
         :: repulsion energy           0.059179395258 Eh    ::
         :: add. restraining           0.000000000000 Eh    ::
         :::::::::::::::::::::::::::::::::::::::::::::::::::::

      ----------------------------------------------------------- 
     |                   =====================                   |
     |                        A N C O P T                        |
     |                   =====================                   |
     |               Approximate Normal Coordinate               |
     |                Rational Function Optimizer                |
      ----------------------------------------------------------- 

          ...................................................
          :                      SETUP                      :
          :.................................................:
          :   optimization level            normal          :
          :   max. optcycles                   200          :
          :   ANC micro-cycles                  20          :
          :   degrees of freedom                 6          :
          :.................................................:
          :   RF solver                   davidson          :
          :   write xtbopt.log                true          :
          :   linear?                        false          :
          :   energy convergence         0.5000000E-05 Eh   :
          :   grad. convergence          0.1000000E-02 Eh/α :
          :   maximium RF displ.         1.0000000          :
          :   Hlow (freq-cutoff)         0.1000000E-01      :
          :   Hmax (freq-cutoff)         5.0000000          :
          :   S6 in model hess.         20.0000000          :
          ...................................................

generating ANC from model Hessian ...
Using Lindh-Hessian (1995)
 Shifting diagonal of input Hessian by    0.0000000000000000     
 Lowest  eigenvalues of input Hessian
   -0.000000   -0.000000    0.000000    0.000000    0.000000    0.000000
    0.060266    0.112323    0.642693    0.693478    0.843793    1.275429
 Highest eigenvalues
    0.060266    0.112323    0.642693    0.693478    0.843793    1.275429


........................................................................
.............................. CYCLE    1 ..............................
........................................................................
   1     -6.6160549 -0.661605E+01  0.152E-05    1.76       0.0  T
   2     -6.6160549  0.644906E-11  0.437E-05    1.76    1144.2  T
   3     -6.6160549 -0.610978E-11  0.167E-05    1.76    2992.6  T
     SCC iter.                  ...        0 min,  0.000 sec
     gradient                   ...        0 min,  0.001 sec
 * total energy  :    -6.5568755 Eh     change       -0.1021378E-08 Eh
   gradient norm :     0.1998588 Eh/α   predicted     0.0000000E+00 (-100.00%)
   displ. norm   :     0.3665482 α      lambda       -0.5003020E-01
   maximum displ.:     0.3200522 α      in ANC's #2, #6, #5, ...

........................................................................
.............................. CYCLE    2 ..............................
........................................................................
   1     -6.6823649 -0.668236E+01  0.142E+00    2.22       0.0  T
   2     -6.6818157  0.549175E-03  0.105E+00    2.12       1.0  T
   3     -6.6711523  0.106635E-01  0.177E+00    2.37       1.0  T
   4     -6.6826352 -0.114830E-01  0.212E-01    2.20       1.0  T
   5     -6.6827076 -0.724040E-04  0.112E-01    2.18       1.0  T
   6     -6.6824894  0.218192E-03  0.268E-01    2.18       1.0  T
   7     -6.6827108 -0.221358E-03  0.836E-03    2.18       6.0  T
   8     -6.6827108  0.121205E-08  0.656E-03    2.18       7.6  T
   9     -6.6827108 -0.557020E-07  0.362E-03    2.18      13.8  T
  10     -6.6827109 -0.131510E-07  0.120E-03    2.18      41.6  T
  11     -6.6827109 -0.805630E-09  0.683E-04    2.18      73.2  T
  12     -6.6827109 -0.413202E-09  0.148E-04    2.18     337.4  T
     SCC iter.                  ...        0 min,  0.001 sec
     gradient                   ...        0 min,  0.001 sec
 * total energy  :    -6.5979576 Eh     change       -0.4108202E-01 Eh
   gradient norm :     0.1234478 Eh/α   predicted    -0.2837606E-01 ( -30.93%)
   displ. norm   :     0.4419532 α      lambda       -0.4266099E-01
   maximum displ.:     0.3448290 α      in ANC's #2, #3, #6, ...

........................................................................
.............................. CYCLE    3 ..............................
........................................................................
   1     -6.7473613 -0.674736E+01  0.142E+00    2.97       0.0  T
   2     -6.7473532  0.806453E-05  0.907E-01    2.88       1.0  T
   3     -6.7451783  0.217498E-02  0.768E-01    3.07       1.0  T
   4     -6.7475829 -0.240464E-02  0.104E-01    2.92       1.0  T
   5     -6.7474249  0.157988E-03  0.238E-01    2.92       1.0  T
   6     -6.7475914 -0.166520E-03  0.593E-02    2.92       1.0  T
   7     -6.7475964 -0.498605E-05  0.689E-03    2.92       7.3  T
   8     -6.7475964 -0.328167E-07  0.335E-03    2.92      14.9  T
   9     -6.7475964 -0.753873E-08  0.827E-04    2.92      60.4  T
  10     -6.7475964 -0.531952E-09  0.327E-05    2.92    1530.8  T
     SCC iter.                  ...        0 min,  0.000 sec
     gradient                   ...        0 min,  0.001 sec
 * total energy  :    -6.6217539 Eh     change       -0.2379630E-01 Eh
   gradient norm :     0.0845183 Eh/α   predicted    -0.2549682E-01 (   7.15%)
   displ. norm   :     0.2249934 α      lambda       -0.9969463E-02
   maximum displ.:     0.1833403 α      in ANC's #2, #3, #5, ...

........................................................................
.............................. CYCLE    4 ..............................
........................................................................
   1     -6.7375370 -0.673754E+01  0.661E-01    3.04       0.0  T
   2     -6.7374845  0.524205E-04  0.407E-01    3.12       1.0  T
   3     -6.7371951  0.289459E-03  0.393E-01    3.01       1.0  T
   4     -6.7376494 -0.454318E-03  0.506E-02    3.08       1.0  T
   5     -6.7376487  0.725042E-06  0.504E-02    3.08       1.0  T
   6     -6.7376548 -0.616064E-05  0.167E-02    3.08       3.0  T
   7     -6.7376551 -0.225699E-06  0.140E-03    3.09      35.6  T
   8     -6.7376551 -0.419885E-09  0.505E-04    3.09      99.0  T
   9     -6.7376551 -0.602665E-10  0.142E-04    3.09     353.2  T
     SCC iter.                  ...        0 min,  0.000 sec
     gradient                   ...        0 min,  0.000 sec
 * total energy  :    -6.6278463 Eh     change       -0.6092488E-02 Eh
   gradient norm :     0.0394254 Eh/α   predicted    -0.5237070E-02 ( -14.04%)
   displ. norm   :     0.1631171 α      lambda       -0.5974404E-02
   maximum displ.:     0.1366510 α      in ANC's #3, #5, #2, ...

........................................................................
.............................. CYCLE    5 ..............................
........................................................................
   1     -6.7484122 -0.674841E+01  0.491E-01    3.33       0.0  T
   2     -6.7484155 -0.330201E-05  0.307E-01    3.33       1.0  T
   3     -6.7483080  0.107505E-03  0.172E-01    3.36       1.0  T
   4     -6.7483447 -0.367203E-04  0.155E-01    3.34       1.0  T
   5     -6.7484199 -0.751075E-04  0.204E-02    3.33       2.4  T
   6     -6.7484205 -0.689660E-06  0.371E-03    3.34      13.5  T
   7     -6.7484205 -0.737111E-08  0.118E-03    3.34      42.3  T
   8     -6.7484205 -0.989757E-09  0.914E-05    3.34     547.3  T
   9     -6.7484205 -0.717915E-11  0.240E-05    3.34    2081.0  T
     SCC iter.                  ...        0 min,  0.000 sec
     gradient                   ...        0 min,  0.000 sec
 * total energy  :    -6.6310075 Eh     change       -0.3161136E-02 Eh
   gradient norm :     0.0141204 Eh/α   predicted    -0.3066684E-02 (  -2.99%)
   displ. norm   :     0.0715323 α      lambda       -0.5457353E-03
   maximum displ.:     0.0491150 α      in ANC's #2, #3, #5, ...

........................................................................
.............................. CYCLE    6 ..............................
........................................................................
   1     -6.7481398 -0.674814E+01  0.195E-01    3.36       0.0  T
   2     -6.7481394  0.409931E-06  0.118E-01    3.36       1.0  T
   3     -6.7480114  0.128049E-03  0.202E-01    3.37       1.0  T
   4     -6.7481269 -0.115529E-03  0.652E-02    3.37       1.0  T
   5     -6.7481413 -0.144337E-04  0.657E-03    3.36       7.6  T
   6     -6.7481413 -0.184768E-07  0.154E-03    3.36      32.6  T
   7     -6.7481413 -0.952545E-10  0.597E-04    3.36      83.7  T
   8     -6.7481413 -0.306184E-09  0.101E-04    3.36     495.0  T
     SCC iter.                  ...        0 min,  0.000 sec
     gradient                   ...        0 min,  0.001 sec
 * total energy  :    -6.6312379 Eh     change       -0.2303879E-03 Eh
   gradient norm :     0.0053762 Eh/α   predicted    -0.2742659E-03 (  19.05%)
   displ. norm   :     0.0120911 α      lambda       -0.5676079E-04
   maximum displ.:     0.0115626 α      in ANC's #2, #5, #6, ...

........................................................................
.............................. CYCLE    7 ..............................
........................................................................
   1     -6.7501575 -0.675016E+01  0.276E-02    3.37       0.0  T
   2     -6.7501556  0.194842E-05  0.319E-02    3.37       1.6  T
   3     -6.7501543  0.124837E-05  0.380E-02    3.37       1.3  T
   4     -6.7501571 -0.277756E-05  0.150E-02    3.37       3.3  T
   5     -6.7501580 -0.863966E-06  0.298E-03    3.37      16.8  T
   6     -6.7501580 -0.111503E-07  0.127E-03    3.37      39.4  T
   7     -6.7501580 -0.283586E-08  0.288E-04    3.37     173.5  T
   8     -6.7501580 -0.155129E-09  0.903E-05    3.37     553.8  T
     SCC iter.                  ...        0 min,  0.000 sec
     gradient                   ...        0 min,  0.001 sec
 * total energy  :    -6.6312660 Eh     change       -0.2818497E-04 Eh
   gradient norm :     0.0006890 Eh/α   predicted    -0.2838373E-04 (   0.71%)
   displ. norm   :     0.0027139 α      lambda       -0.7609092E-06
   maximum displ.:     0.0019009 α      in ANC's #5, #2, #3, ...

........................................................................
.............................. CYCLE    8 ..............................
........................................................................
   1     -6.7500868 -0.675009E+01  0.246E-02    3.36       0.0  T
   2     -6.7500713  0.155458E-04  0.679E-02    3.36       1.0  T
   3     -6.7500845 -0.132363E-04  0.354E-02    3.36       1.4  T
   4     -6.7500870 -0.243133E-05  0.144E-02    3.36       3.5  T
   5     -6.7500874 -0.442998E-06  0.724E-03    3.36       6.9  T
   6     -6.7500875 -0.933832E-07  0.369E-03    3.36      13.5  T
   7     -6.7500875 -0.322405E-07  0.506E-04    3.36      98.9  T
   8     -6.7500875 -0.605595E-09  0.366E-05    3.36    1364.9  T
     SCC iter.                  ...        0 min,  0.000 sec
     gradient                   ...        0 min,  0.001 sec
 * total energy  :    -6.6312665 Eh     change       -0.4233887E-06 Eh
   gradient norm :     0.0004189 Eh/α   predicted    -0.3800396E-06 ( -10.24%)
   displ. norm   :     0.0009923 α      lambda       -0.1705171E-06
   maximum displ.:     0.0007457 α      in ANC's #1, #4, #5, ...

   *** GEOMETRY OPTIMIZATION CONVERGED AFTER 8 ITERATIONS ***

------------------------------------------------------------------------
 total energy gain   :        -0.0743909 Eh      -46.6810 kcal/mol
 total RMSD          :         0.5772395 a0        0.3055 Å
 total power (kW/mol):       -24.4141735 (step)********** (real)
------------------------------------------------------------------------

 ANCopt (total)                0 d,  0 h,  0 min,  0.014 sec
 optimizer setup                ...        0 min,  0.000 sec (  0.385%)
 model hessian                  ...        0 min,  0.000 sec (  0.427%)
 ANC generation                 ...        0 min,  0.000 sec (  0.244%)
 coordinate transformation      ...        0 min,  0.000 sec (  0.104%)
 single point calculation       ...        0 min,  0.013 sec ( 94.983%)
 optimization log               ...        0 min,  0.000 sec (  0.923%)
 hessian update                 ...        0 min,  0.000 sec (  0.102%)
 rational function              ...        0 min,  0.000 sec (  1.103%)

================
 final structure:
================
4
 xtb: 6.2.2 (9d81278992624c895f80dd42a50cac0aa55982e2)
C         0.33222375286727   -0.01025961758938   -0.00767336822445
C        -0.88511387053099   -0.67581494348115   -0.02274349058863
C        -0.84029821486503    0.72936775510821    0.06126468902826
H         1.39318833252875   -0.04329319403768   -0.03084783021518

 Bond Distances (Angstroems)
 ---------------------------
C1-C2=1.3875         C1-C3=1.3880         C1-H4=1.0617         C2-C1=1.3875         C2-C3=1.4084         C3-C1=1.3880         
C3-C2=1.4084         H4-C1=1.0617         
 C  H  Rav=1.0617 sigma=0.0000  Rmin=1.0617  Rmax=1.0617     1
 C  C  Rav=1.3946 sigma=0.0097  Rmin=1.3875  Rmax=1.4084     3

 selected bond angles (degree)
 --------------------
C3-C1-C2= 60.99                H4-C1-C2=149.49                H4-C1-C3=149.52                C3-C2-C1= 59.53                
C2-C3-C1= 59.49                

 selected dihedral angles (degree)
 ---------------------------------
C3-C2-C1-H4=179.92            C2-C3-C1-H4=180.08            
           -------------------------------------------------
          |                Final Singlepoint                |
           -------------------------------------------------

          ...................................................
          :                      SETUP                      :
          :.................................................:
          :  # basis functions                  13          :
          :  # atomic orbitals                  13          :
          :  # shells                            7          :
          :  # electrons                        13          :
          :  max. iterations                   250          :
          :  Hamiltonian                  GFN2-xTB          :
          :  restarted?                      false          :
          :  GBSA solvation                  false          :
          :  PC potential                    false          :
          :  electronic temp.          300.0000000     K    :
          :  accuracy                    1.0000000          :
          :  -> integral cutoff          0.2500000E+02      :
          :  -> integral neglect         0.1000000E-07      :
          :  -> SCF convergence          0.1000000E-05 Eh   :
          :  -> wf. convergence          0.1000000E-03 e    :
          :  Broyden damping             0.4000000          :
          ...................................................

 iter      E             dE          RMSdq      gap      omega  full diag
   1     -6.7500875 -0.675009E+01  0.165E-05    3.36       0.0  T
   2     -6.7500875  0.331291E-12  0.209E-05    3.36    2387.8  T
   3     -6.7500875  0.919798E-11  0.670E-05    3.36     746.5  T

   *** convergence criteria satisfied after 3 iterations ***

         #    Occupation            Energy/Eh            Energy/eV
      -------------------------------------------------------------
         1        2.0000           -0.6918855             -18.8272
         2        2.0000           -0.5859716             -15.9451
         3        2.0000           -0.5541626             -15.0795
         4        2.0000           -0.5025090             -13.6740
         5        2.0000           -0.4840007             -13.1703
         6        1.9672           -0.4048132             -11.0155
         7        1.0328           -0.3983832             -10.8406 (HOMO)
         8                         -0.2748273              -7.4784 (LUMO)
         9                         -0.2694892              -7.3332
        10                         -0.0046932              -0.1277
        11                          0.0878530               2.3906
        12                          0.3744419              10.1891
        13                          0.6016678              16.3722
      -------------------------------------------------------------
                  HL-Gap            0.1235559 Eh            3.3621 eV
             Fermi-level           -0.3691017 Eh          -10.0438 eV

 SCC (total)                   0 d,  0 h,  0 min,  0.001 sec
 SCC setup                      ...        0 min,  0.000 sec (  2.788%)
 Dispersion                     ...        0 min,  0.000 sec (  0.401%)
 integral evaluation            ...        0 min,  0.000 sec ( 34.441%)
 zeroth order Hamiltonian       ...        0 min,  0.000 sec (  0.568%)
 iterations                     ...        0 min,  0.000 sec ( 22.955%)
 molecular gradient             ...        0 min,  0.001 sec ( 35.843%)
 printout                       ...        0 min,  0.000 sec (  2.387%)

         :::::::::::::::::::::::::::::::::::::::::::::::::::::
         ::                     SUMMARY                     ::
         :::::::::::::::::::::::::::::::::::::::::::::::::::::
         :: total energy              -6.631266471918 Eh    ::
         :: gradient norm              0.000439607513 Eh/a0 ::
         :: HOMO-LUMO gap              3.362127119139 eV    ::
         ::.................................................::
         :: SCC energy                -6.750087539525 Eh    ::
         :: -> isotropic ES           -0.005394203683 Eh    ::
         :: -> anisotropic ES         -0.000757108797 Eh    ::
         :: -> anisotropic XC          0.007527407848 Eh    ::
         :: -> dispersion             -0.001253260117 Eh    ::
         :: repulsion energy           0.118821062109 Eh    ::
         :: add. restraining           0.000000000000 Eh    ::
         :::::::::::::::::::::::::::::::::::::::::::::::::::::

           ------------------------------------------------- 
          |                Numerical Hessian                |
           ------------------------------------------------- 
step length          :   0.00500
SCC accuracy         :   0.30000
Hessian scale factor :   1.00000
frozen atoms in %    :   0.00000    0
RMS gradient         :   0.00044
estimated CPU  time      0.00 min
estimated wall time      0.00 min

writing file <hessian>.

 projected vibrational frequencies (cm-1)
eigval :       -0.00    -0.00     0.00     0.00     0.00     0.00
eigval :    -1076.46   791.93   825.81  1097.53  1685.89  3247.06
           -------------------------------------------------
          |                Property Printout                |
           -------------------------------------------------

    * Orbital Energies and Occupations

         #    Occupation            Energy/Eh            Energy/eV
      -------------------------------------------------------------
         1        2.0000           -0.6918855             -18.8272
         2        2.0000           -0.5859716             -15.9451
         3        2.0000           -0.5541626             -15.0795
         4        2.0000           -0.5025090             -13.6740
         5        2.0000           -0.4840007             -13.1703
Molecule has the following symmetry elements: (C2) 2*(sigma) 
It seems to be the C2v point group
         6        1.9672           -0.4048132             -11.0155
         7        1.0328           -0.3983832             -10.8406 (HOMO)
         8                         -0.2748273              -7.4784 (LUMO)
         9                         -0.2694891              -7.3332
        10                         -0.0046932              -0.1277
        11                          0.0878530               2.3906
        12                          0.3744419              10.1891
        13                          0.6016678              16.3722
      -------------------------------------------------------------
                  HL-Gap            0.1235559 Eh            3.3621 eV
             Fermi-level           -0.3691017 Eh          -10.0438 eV

     #   Z        covCN         q      C6AA      α(0)
     1   6 C      2.888     0.040    27.092     8.533
     2   6 C      1.960    -0.052    32.481     9.204
     3   6 C      1.960    -0.053    32.504     9.207
     4   1 H      0.927     0.065     2.141     2.288

 Mol. C6AA /au·bohr⁶  :        326.414000
 Mol. C8AA /au·bohr⁸  :       8908.034777
 Mol. α(0) /au        :         29.232133


Wiberg/Mayer (AO) data.
largest (>0.10) Wiberg bond orders for each atom
          total WBO             WBO to atom ...
     1  C   3.850        C    2 1.444    C    3 1.441    H    4 0.965
     2  C   2.725        C    1 1.444    C    3 1.266
     3  C   2.723        C    1 1.441    C    2 1.266
     4  H   0.996        C    1 0.965

MOs/occ written to file <molden.input>


molecular dipole:
                 x           y           z       tot (Debye)
 q only:        0.368      -0.013      -0.008
   full:        0.989      -0.034      -0.022       2.516
molecular quadrupole (traceless):
                xx          xy          yy          xz          yz          zz
 q only:        0.279      -0.015      -0.279      -0.007      -0.017      -0.001
  q+dip:        0.255      -0.000      -0.222      -0.005      -0.012      -0.033
   full:       -1.312       0.024      -0.893       0.074      -0.189       2.205

           -------------------------------------------------
          |                Geometry Summary                 |
           -------------------------------------------------

      molecular mass/u    :       37.0401484
   center of mass at/Å    :       -0.4138472       0.0128624       0.0091648
  moments of inertia/u·Å² :        0.1191226E+02   0.1483818E+02   0.2675044E+02
rotational constants/cm⁻¹ :        0.1415150E+01   0.1136098E+01   0.6301814E+00

 * 1 selected distances

     #   Z        #   Z                                     value/Å
     1   6 C      4   1 H                                 1.0617317 (max)

 * 1 distinct bonds (by element types)

   Z      Z             #   av. dist./Å        max./Å        min./Å
   1 H    6 C           1     1.0617317     1.0617317     1.0617317

           -------------------------------------------------
          |               Frequency Printout                |
           -------------------------------------------------
 projected vibrational frequencies (cm-1)
eigval :       -0.00    -0.00     0.00     0.00     0.00     0.00
eigval :    -1076.46   791.93   825.81  1097.53  1685.89  3247.06
 reduced masses (amu)
   1: 10.78   2: 11.83   3: 11.98   4: 11.80   5: 11.70   6:  9.27   7: 11.98   8:  3.75
   9:  2.70  10: 11.76  11: 11.51  12:  2.05
 IR intensities (amu)
   1:  0.02   2:  0.10   3:  0.13   4:  0.08   5:  0.14   6:  0.29   7:  6.16   8:  0.01
   9:  0.08  10:  0.10  11:  0.27  12:  0.12
 Raman intensities (amu)
   1:  0.00   2:  0.00   3:  0.00   4:  0.00   5:  0.00   6:  0.00   7:  0.00   8:  0.00
   9:  0.00  10:  0.00  11:  0.00  12:  0.00
 output can be read by thermo (or use thermo option).
 writing <g98.out> molden fake output.
 recommended (thermochemical) frequency scaling factor: 1.0
           -------------------------------------------------
          |             Thermodynamic Functions             |
           -------------------------------------------------

c2v symmetry found (for desy threshold:  0.10E+00) used in thermo

          ...................................................
          :                      SETUP                      :
          :.................................................:
          :  # frequencies                           5      :
          :  # imaginary freq.                       1      :
          :  linear?                             false      :
          :  only rotor calc.                    false      :
          :  symmetry                              c2v      :
          :  rotational number                       2      :
          :  scaling factor                  1.0000000      :
          :  rotor cutoff                   50.0000000 cm⁻¹ :
          :  imag. cutoff                  -20.0000000 cm⁻¹ :
          :.................................................:

    mode    ω/cm⁻¹     T·S(HO)/kcal·mol⁻¹    T·S(FR)/kcal·mol⁻¹   T·S(vib)
   ------------------------------------------------------------------------
   ------------------------------------------------------------------------

   temp. (K)  partition function   enthalpy   heat capacity  entropy
                                   cal/mol     cal/K/mol   cal/K/mol   J/K/mol
 298.15  VIB   1.05                  112.623      1.594      0.470
         ROT  0.263E+04              888.752      2.981     18.627
         INT  0.275E+04             1001.375      4.575     19.097
         TR   0.218E+27             1481.254      4.968     36.741
         TOT                        2482.6293     9.5431    55.8378   233.6256

   temp. (K)  partition function   enthalpy   heat capacity  entropy
                                   cal/mol     cal/K/mol   cal/K/mol   J/K/mol
 120.00  VIB   1.00                    0.295      0.024      0.003
         ROT   671.                  357.707      2.981     15.914
         INT   671.                  358.002      3.005     15.917
         TR   0.557E+26              596.178      4.968     32.222
         TOT                         954.1795     7.9729    48.1387   201.4123

   temp. (K)  partition function   enthalpy   heat capacity  entropy
                                   cal/mol     cal/K/mol   cal/K/mol   J/K/mol
 100.00  VIB   1.00                    0.042      0.005      0.000
         ROT   510.                  298.089      2.981     15.371
         INT   510.                  298.131      2.986     15.371
         TR   0.424E+26              496.815      4.968     31.316
         TOT                         794.9463     7.9540    46.6876   195.3409

   temp. (K)  partition function   enthalpy   heat capacity  entropy
                                   cal/mol     cal/K/mol   cal/K/mol   J/K/mol
  80.00  VIB   1.00                    0.002      0.000      0.000
         ROT   365.                  238.471      2.981     14.706
         INT   365.                  238.474      2.981     14.706
         TR   0.303E+26              397.452      4.968     30.208
         TOT                         635.9255     7.9495    44.9139   187.9199

   temp. (K)  partition function   enthalpy   heat capacity  entropy
                                   cal/mol     cal/K/mol   cal/K/mol   J/K/mol
  60.00  VIB   1.00                    0.000      0.000     -0.000
         ROT   237.                  178.853      2.981     13.848
         INT   237.                  178.853      2.981     13.848
         TR   0.197E+26              298.089      4.968     28.780
         TOT                         476.9424     7.9490    42.6278   178.3547

   temp. (K)  partition function   enthalpy   heat capacity  entropy
                                   cal/mol     cal/K/mol   cal/K/mol   J/K/mol
  40.00  VIB   1.00                    0.000      0.000     -0.000
         ROT   129.                  119.236      2.981     12.640
         INT   129.                  119.236      2.981     12.640
         TR   0.107E+26              198.726      4.968     26.766
         TOT                         317.9616     7.9490    39.4057   164.8735

   temp. (K)  partition function   enthalpy   heat capacity  entropy
                                   cal/mol     cal/K/mol   cal/K/mol   J/K/mol
  20.00  VIB   1.00                    0.000      0.000     -0.000
         ROT   45.6                   59.618      2.981     10.573
         INT   45.6                   59.618      2.981     10.573
         TR   0.379E+25               99.363      4.968     23.324
         TOT                         158.9808     7.9490    33.8975   141.8272

   temp. (K)  partition function   enthalpy   heat capacity  entropy
                                   cal/mol     cal/K/mol   cal/K/mol   J/K/mol
  10.00  VIB   1.00                    0.000      0.000     -0.000
         ROT   16.1                   29.809      2.981      8.507
         INT   16.1                   29.809      2.981      8.507
         TR   0.134E+25               49.681      4.968     19.882
         TOT                          79.4904     7.9490    28.3893   118.7809

       T/K    H(0)-H(T)+PV         H(T)/Eh          T*S/Eh         G(T)/Eh
   ------------------------------------------------------------------------
    298.15    0.395632E-02    0.213803E-01    0.265304E-01   -0.515011E-02
    120.00    0.152058E-02    0.189445E-01    0.920567E-02    0.973884E-02
    100.00    0.126683E-02    0.186908E-01    0.744014E-02    0.112506E-01
     80.00    0.101341E-02    0.184373E-01    0.572599E-02    0.127113E-01
     60.00    0.760056E-03    0.181840E-01    0.407590E-02    0.141081E-01
     40.00    0.506704E-03    0.179306E-01    0.251188E-02    0.154188E-01
     20.00    0.253352E-03    0.176773E-01    0.108038E-02    0.165969E-01
     10.00    0.126676E-03    0.175506E-01    0.452412E-03    0.170982E-01 (used)
   ------------------------------------------------------------------------

         :::::::::::::::::::::::::::::::::::::::::::::::::::::
         ::                  THERMODYNAMIC                  ::
         :::::::::::::::::::::::::::::::::::::::::::::::::::::
         :: total free energy          -6.614168279591 Eh   ::
         ::.................................................::
         :: total energy               -6.631266471910 Eh   ::
         :: zero point energy           0.017423928751 Eh   ::
         :: G(RRHO) w/o ZPVE           -0.000325736432 Eh   ::
         :: G(RRHO) contrib.            0.017098192319 Eh   ::
         :::::::::::::::::::::::::::::::::::::::::::::::::::::
imag cut-off (cm-1) :    5.00
 found            1  significant imaginary frequency
 writing imag mode distorted coords to xtbhess.xyz
 for further optimization.

optimized geometry written to: xtbopt.xyz


           -------------------------------------------------
          | TOTAL ENERGY               -6.631266471910 Eh   |
          | TOTAL ENTHALPY             -6.613715867143 Eh   |
          | TOTAL FREE ENERGY          -6.614168279591 Eh   |
          | GRADIENT NORM               0.000441616506 Eh/α |
          | HOMO-LUMO GAP               3.362127017100 eV   |
           -------------------------------------------------

------------------------------------------------------------------------
 * finished run on 2020/05/12 at 11:43:51.691     
------------------------------------------------------------------------
 total:
 * wall-time:     0 d,  0 h,  0 min,  0.071 sec
 *  cpu-time:     0 d,  0 h,  0 min,  0.071 sec
 * ratio c/w:     0.999 speedup
 SCF:
 * wall-time:     0 d,  0 h,  0 min,  0.003 sec
 *  cpu-time:     0 d,  0 h,  0 min,  0.003 sec
 * ratio c/w:     1.000 speedup
 ANC optimizer:
 * wall-time:     0 d,  0 h,  0 min,  0.016 sec
 *  cpu-time:     0 d,  0 h,  0 min,  0.016 sec
 * ratio c/w:     1.000 speedup
 numerical hessian:
 * wall-time:     0 d,  0 h,  0 min,  0.038 sec
 *  cpu-time:     0 d,  0 h,  0 min,  0.038 sec
 * ratio c/w:     0.998 speedup

