4
 energy: -6.556875532162 gnorm: 0.199858762285 xtb: 6.2.2 (9d81278992624c895f80dd42a50cac0aa55982e2)
C         0.38688400000000   -0.04062300000000    0.47099500000000
C        -0.81903600000000   -0.72337000000000   -0.14019100000000
C        -0.77034700000000    0.78600600000000   -0.05000300000000
H         1.20249900000000   -0.02201300000000   -0.28080100000000
4
 energy: -6.597957554099 gnorm: 0.123458079009 xtb: 6.2.2 (9d81278992624c895f80dd42a50cac0aa55982e2)
C         0.36048088303543   -0.03206494011190    0.34201083552727
C        -0.85330511394538   -0.69068025916246   -0.10358805197034
C        -0.80678614534234    0.75146389157624   -0.01741774070385
H         1.29961037625229   -0.02871869230189   -0.22100504285308
4
 energy: -6.621753851671 gnorm: 0.085645860320 xtb: 6.2.2 (9d81278992624c895f80dd42a50cac0aa55982e2)
C         0.32367855385339   -0.02051316507919    0.16851995952433
C        -0.87787117923830   -0.65490965957022   -0.05659094625295
C        -0.83378529343296    0.71201227264568    0.02508374923319
H         1.38797791881787   -0.03658944799626   -0.13701276250456
4
 energy: -6.627846339588 gnorm: 0.039837077370 xtb: 6.2.2 (9d81278992624c895f80dd42a50cac0aa55982e2)
C         0.33201586810248   -0.01552807785464    0.08058593711404
C        -0.90246841563002   -0.66722170873314   -0.03866939399595
C        -0.85762075101851    0.72366373580343    0.04443807105657
H         1.42807329854605   -0.04091394921565   -0.08635461417466
4
 energy: -6.631007475609 gnorm: 0.014470841925 xtb: 6.2.2 (9d81278992624c895f80dd42a50cac0aa55982e2)
C         0.33604904793882   -0.01217780162882    0.02235190716566
C        -0.88519444413486   -0.67733142905773   -0.02970741292464
C        -0.83980265666731    0.73151915759285    0.05447746986981
H         1.38894805286335   -0.04200992690630   -0.04712196411084
4
 energy: -6.631237863460 gnorm: 0.005424567206 xtb: 6.2.2 (9d81278992624c895f80dd42a50cac0aa55982e2)
C         0.33131439506512   -0.01018775773641   -0.00839257991791
C        -0.88733946630756   -0.67683982449969   -0.02228513863861
C        -0.84206608229107    0.73031249839775    0.06180433489147
H         1.39809115353352   -0.04328491616165   -0.03112661633495
4
 energy: -6.631266048426 gnorm: 0.000721468083 xtb: 6.2.2 (9d81278992624c895f80dd42a50cac0aa55982e2)
C         0.33183643579568   -0.01030816108001   -0.00664619326010
C        -0.88501476788659   -0.67608462638934   -0.02290694641593
C        -0.83989216518504    0.72952943460230    0.06110055331548
H         1.39307049727596   -0.04313664713296   -0.03154741363945
4
 energy: -6.631266471815 gnorm: 0.000440866836 xtb: 6.2.2 (9d81278992624c895f80dd42a50cac0aa55982e2)
C         0.33222375286727   -0.01025961758938   -0.00767336822445
C        -0.88511387053099   -0.67581494348115   -0.02274349058863
C        -0.84029821486503    0.72936775510821    0.06126468902826
H         1.39318833252875   -0.04329319403768   -0.03084783021518
