5
 energy: -8.526799355015 gnorm: 0.206450986479 xtb: 6.2.2 (9d81278992624c895f80dd42a50cac0aa55982e2)
C         1.48957400000000   -0.60658300000000   -0.30638200000000
C         0.63276500000000    0.30598200000000    0.55439300000000
C        -0.84902200000000   -0.01539800000000    0.40117700000000
C        -0.24479600000000    1.16243800000000   -0.33374400000000
H        -1.02852200000000   -0.84643800000000   -0.31544400000000
5
 energy: -8.573597618050 gnorm: 0.119037461015 xtb: 6.2.2 (9d81278992624c895f80dd42a50cac0aa55982e2)
C         1.55529214529445   -0.53538564141706   -0.24952444022507
C         0.65461755197526    0.26531135100490    0.46915124485329
C        -0.83283757276524   -0.00918278711957    0.34647551207192
C        -0.22678957117732    1.13403131027746   -0.28381657409659
H        -1.15028355332714   -0.85477323274572   -0.28228574260355
5
 energy: -8.595263598285 gnorm: 0.078850145734 xtb: 6.2.2 (9d81278992624c895f80dd42a50cac0aa55982e2)
C         1.63178391911995   -0.48022728801172   -0.15984851685791
C         0.69947667375417    0.22987814312286    0.34518557230025
C        -0.80219532823557   -0.01545188970870    0.28986487623140
C        -0.24667082700042    1.10425743422042   -0.21704887629312
H        -1.28239543763813   -0.83845539962286   -0.25815305538063
5
 energy: -8.605032359994 gnorm: 0.064940292315 xtb: 6.2.2 (9d81278992624c895f80dd42a50cac0aa55982e2)
C         1.84402113972074   -0.44720882929119   -0.12025765620178
C         0.70444222651280    0.18670008920032    0.27435385315872
C        -0.82084117251042   -0.03287514396188    0.27311486312029
C        -0.26076733440986    1.11003744915858   -0.19902812488296
H        -1.46685585931326   -0.81665256510582   -0.22818293519426
5
 energy: -8.609334169044 gnorm: 0.039189462447 xtb: 6.2.2 (9d81278992624c895f80dd42a50cac0aa55982e2)
C         1.85251114354777   -0.44407891437149   -0.10352748023137
C         0.70353387512669    0.17823052019384    0.23883501264146
C        -0.82593818950398   -0.04884512011864    0.23517651825379
C        -0.25565908696102    1.13054352861725   -0.17449220270312
H        -1.47444874220946   -0.81584901432096   -0.19599184796076
5
 energy: -8.614037198200 gnorm: 0.018534980417 xtb: 6.2.2 (9d81278992624c895f80dd42a50cac0aa55982e2)
C         1.90205380511516   -0.40557018732794   -0.06046287575647
C         0.71969702128721    0.16806215443926    0.18290599646543
C        -0.80441896205562   -0.09226769133112    0.17627532626509
C        -0.25219455898531    1.10894310666810   -0.14270546756170
H        -1.56513830536144   -0.77916638244829   -0.15601297941235
5
 energy: -8.615817250419 gnorm: 0.019860155332 xtb: 6.2.2 (9d81278992624c895f80dd42a50cac0aa55982e2)
C         1.95737546334481   -0.39523129258388   -0.02277213717184
C         0.73218979061242    0.15190924529048    0.12638228829508
C        -0.79367845935728   -0.11568577241964    0.11724067805882
C        -0.27062572782662    1.11477394834314   -0.10571284399990
H        -1.62526206677332   -0.75576512863010   -0.11513798518217
5
 energy: -8.617306592648 gnorm: 0.023140399249 xtb: 6.2.2 (9d81278992624c895f80dd42a50cac0aa55982e2)
C         1.96478972402558   -0.39049792269925   -0.00040628200924
C         0.73522429472653    0.14186372721019    0.08917268718963
C        -0.78081285297560   -0.13040152095688    0.04464339723172
C        -0.28021762276075    1.12001705934236   -0.06663072160998
H        -1.63898454301576   -0.74098034289642   -0.06677908080213
5
 energy: -8.617882012595 gnorm: 0.031015953210 xtb: 6.2.2 (9d81278992624c895f80dd42a50cac0aa55982e2)
C         1.95253017126718   -0.39338730911262    0.02091757349607
C         0.73239499850251    0.14018204170852    0.05435224087526
C        -0.75205280635607   -0.14233400711050   -0.04324559722024
C        -0.28496254907435    1.14601992751919   -0.01807794045783
H        -1.64791081433928   -0.75047965300459   -0.01394627669326
5
 energy: -8.619168585031 gnorm: 0.030753145522 xtb: 6.2.2 (9d81278992624c895f80dd42a50cac0aa55982e2)
C         1.89889064322582   -0.41884095748592    0.01051465531427
C         0.71309463473843    0.14633763522399    0.06213801489829
C        -0.73915564068044   -0.12812544065947   -0.05727504406821
C        -0.29357003352928    1.15831624333052   -0.00799141530450
H        -1.57926060375454   -0.75768648040911   -0.00738621083986
5
 energy: -8.620023083545 gnorm: 0.022698577811 xtb: 6.2.2 (9d81278992624c895f80dd42a50cac0aa55982e2)
C         1.89502584900770   -0.43922835625040    0.01000236260116
C         0.69574813773061    0.14249634477195    0.04960146069006
C        -0.73752418542200   -0.11230116894937   -0.05555606293256
C        -0.30303044359899    1.17912967804911    0.00225052201651
H        -1.55022035771731   -0.77009549762130   -0.00629828237516
5
 energy: -8.620482138780 gnorm: 0.025353292737 xtb: 6.2.2 (9d81278992624c895f80dd42a50cac0aa55982e2)
C         1.87799976201300   -0.44712929046149   -0.00632102720959
C         0.67539864671685    0.13694153780391    0.06361534674282
C        -0.73935768988356   -0.08068046030393   -0.03101385240223
C        -0.29142474392163    1.20171826857953   -0.00535914467869
H        -1.52261697492467   -0.81084905561802   -0.02092132245231
5
 energy: -8.620816118212 gnorm: 0.011113862035 xtb: 6.2.2 (9d81278992624c895f80dd42a50cac0aa55982e2)
C         1.86411757301474   -0.46461774427353    0.00474503446954
C         0.68402472769182    0.14998918748986    0.05135111062549
C        -0.73076123879288   -0.08748065436021   -0.02717080436920
C        -0.30501969346022    1.21451219436436    0.00179367685419
H        -1.51236236845346   -0.81240198322048   -0.03071901758002
5
 energy: -8.620914209935 gnorm: 0.007771637767 xtb: 6.2.2 (9d81278992624c895f80dd42a50cac0aa55982e2)
C         1.87146792761189   -0.45645746817066    0.00596618132041
C         0.68815604920986    0.14791217388779    0.05048868215557
C        -0.73739034195115   -0.08988324406269   -0.01472597461814
C        -0.30070761387784    1.20559433541140   -0.00464396984566
H        -1.52152702099276   -0.80716479706584   -0.03708491901218
5
 energy: -8.621059836136 gnorm: 0.005278786468 xtb: 6.2.2 (9d81278992624c895f80dd42a50cac0aa55982e2)
C         1.86728583357593   -0.45308422380078    0.01026800410731
C         0.68405199747860    0.14267259929932    0.03915600581737
C        -0.73786428253298   -0.08778705689971   -0.01802363129335
C        -0.29699491533938    1.20708186848505    0.00118845393227
H        -1.51647963318218   -0.80888218708388   -0.03258883256361
5
 energy: -8.621190663315 gnorm: 0.001304040649 xtb: 6.2.2 (9d81278992624c895f80dd42a50cac0aa55982e2)
C         1.86439610573215   -0.45013718383374    0.02039509402394
C         0.67690317845031    0.13427490371324    0.01453247097398
C        -0.73949536135805   -0.08235876757151   -0.01213655082641
C        -0.29214831877263    1.21346782110261    0.00992491375133
H        -1.50965660405179   -0.81524577341060   -0.03271592792284
5
 energy: -8.621200108840 gnorm: 0.001276711459 xtb: 6.2.2 (9d81278992624c895f80dd42a50cac0aa55982e2)
C         1.86974202881784   -0.44451444212852    0.02515156022944
C         0.67781081274300    0.13160730847811    0.00749894326175
C        -0.73880811988594   -0.08658258324175   -0.01442868550086
C        -0.29065211718103    1.20955860246759    0.01173926931367
H        -1.51809360449388   -0.81006788557543   -0.02996108730399
5
 energy: -8.621202846901 gnorm: 0.001249276030 xtb: 6.2.2 (9d81278992624c895f80dd42a50cac0aa55982e2)
C         1.86960348217120   -0.44445348209521    0.02424418867518
C         0.67755948424685    0.13125449449337    0.00938981941965
C        -0.73863738561358   -0.08607760810273   -0.01298490823403
C        -0.29059814901676    1.20990236329851    0.01019012649455
H        -1.51792843178772   -0.81062476759394   -0.03083922635535
5
 energy: -8.621206334901 gnorm: 0.001048728269 xtb: 6.2.2 (9d81278992624c895f80dd42a50cac0aa55982e2)
C         1.87000243510968   -0.44343143892018    0.02358026933400
C         0.67680611539580    0.12928594228900    0.01085261678012
C        -0.73850265859522   -0.08590503387110   -0.01228214048501
C        -0.29037080069079    1.21049175543714    0.00834794508716
H        -1.51793609121946   -0.81044022493486   -0.03049869071626
