5
 energy: -8.621206335079 gnorm: 0.001060059621 xtb: 6.2.2 (9d81278992624c895f80dd42a50cac0aa55982e2)
C         1.87000019558465   -0.44344118906838    0.02357451572778
C         0.67680683020410    0.12928241747968    0.01085002863448
C        -0.73850315125065   -0.08590118851506   -0.01227941269177
C        -0.29036443343251    1.21049329036642    0.00834684596573
H        -1.51794044110035   -0.81043233025742   -0.03049197763447
