 Entering Gaussian System
 *********************************************
 Gaussian 98:
 frequency output generated by the xtb code
 *********************************************
                         Standard orientation:
 --------------------------------------------------------------------
  Center     Atomic     Atomic              Coordinates (Angstroms)
  Number     Number      Type              X           Y           Z
 --------------------------------------------------------------------
    1          6             0        1.870000   -0.443441    0.023575
    2          6             0        0.676807    0.129282    0.010850
    3          6             0       -0.738503   -0.085901   -0.012279
    4          6             0       -0.290364    1.210493    0.008347
    5          1             0       -1.517940   -0.810432   -0.030492
 --------------------------------------------------------------------
     1 basis functions        1 primitive gaussians
     1 alpha electrons        1 beta electrons

 Harmonic frequencies (cm**-1), IR intensities (KM/Mole),
 Raman scattering activities (A**4/amu), Raman depolarization ratios,
 reduced masses (AMU), force constants (mDyne/A) and normal coordinates:
                      1                      2                      3
                        a                      a                      a 
 Frequencies --   169.2380               339.1428               611.1903
 Red. masses --    11.2139                11.7393                 9.7269
 Frc consts  --     0.0000                 0.0000                 0.0000
 IR Inten    --     1.3010                 0.2626                 3.0000
 Raman Activ --     0.0000                 0.0000                 0.0000
 Depolar     --     0.0000                 0.0000                 0.0000
 Atom AN      X      Y      Z        X      Y      Z        X      Y      Z
   1   6     0.20   0.48   0.01     0.01   0.01  -0.42    -0.35   0.01  -0.01
   2   6    -0.28  -0.69  -0.01    -0.01  -0.01   0.84    -0.21  -0.30  -0.00
   3   6    -0.14   0.10  -0.00     0.00   0.00  -0.09     0.54  -0.10  -0.00
   4   6     0.27   0.06   0.01     0.00   0.00  -0.28    -0.09   0.47   0.01
   5   1    -0.19   0.19   0.00     0.00   0.00  -0.16     0.37  -0.26   0.02
                      4                      5                      6
                        a                      a                      a 
 Frequencies --   656.9669               802.3545               887.0620
 Red. masses --     3.8708                 5.8378                10.9876
 Frc consts  --     0.0000                 0.0000                 0.0000
 IR Inten    --     0.1283                 0.6328                 0.8215
 Raman Activ --     0.0000                 0.0000                 0.0000
 Depolar     --     0.0000                 0.0000                 0.0000
 Atom AN      X      Y      Z        X      Y      Z        X      Y      Z
   1   6     0.01  -0.00  -0.02    -0.06   0.12   0.00    -0.52   0.24  -0.01
   2   6     0.00   0.01   0.14    -0.09   0.07  -0.00    -0.10   0.27   0.00
   3   6    -0.00   0.01  -0.48    -0.42   0.13  -0.01     0.16  -0.42  -0.00
   4   6    -0.00  -0.01   0.11     0.44  -0.15   0.01     0.52  -0.15   0.01
   5   1    -0.02  -0.00   0.86     0.47  -0.58   0.00    -0.24   0.19  -0.00
                      7                      8                      9
                        a                      a                      a 
 Frequencies --  1437.6381              1607.4625              3200.6960
 Red. masses --    11.6222                11.8151                 2.0093
 Frc consts  --     0.0000                 0.0000                 0.0000
 IR Inten    --     0.5722                 2.4668                 0.1616
 Raman Activ --     0.0000                 0.0000                 0.0000
 Depolar     --     0.0000                 0.0000                 0.0000
 Atom AN      X      Y      Z        X      Y      Z        X      Y      Z
   1   6    -0.38   0.19  -0.00     0.33  -0.16   0.00     0.00   0.00   0.00
   2   6     0.21  -0.16   0.00    -0.76   0.25  -0.01     0.02  -0.01   0.00
   3   6     0.27   0.53   0.01     0.33   0.16   0.01    -0.22  -0.21  -0.01
   4   6    -0.14  -0.58  -0.01     0.08  -0.28  -0.00    -0.00   0.03   0.00
   5   1     0.15   0.11   0.00     0.10   0.09   0.00     0.69   0.65   0.02
