$hessian                                                                        
        0.3822847582  -0.1735267573   0.0040318965  -0.3322792458   0.1193127643
       -0.0036883432  -0.0285811837  -0.0476935534  -0.0012012302  -0.0205504875
        0.1051010851   0.0008019470  -0.0008738412  -0.0031935387   0.0000557299
       -0.1735267573   0.0890475681  -0.0019024925   0.1618584855  -0.0545989524
        0.0021979481  -0.0133985277   0.0315476389   0.0002067372   0.0227722467
       -0.0665661344  -0.0004802558   0.0022945529   0.0005698798  -0.0000219369
        0.0040318965  -0.0019024925   0.0094254350  -0.0032638637   0.0015365759
       -0.0191101756  -0.0006367022  -0.0004704954   0.0037597613  -0.0001481820
        0.0008892743   0.0058199233   0.0000168513  -0.0000528622   0.0001050561
       -0.3322792458   0.1618584855  -0.0032638637   0.7266668252  -0.2540756851
        0.0077313831  -0.2670275908  -0.0419610118  -0.0039812847  -0.1230659017
        0.1309166244  -0.0003044984  -0.0042940869   0.0032615869  -0.0001817362
        0.1193127643  -0.0545989524   0.0015365759  -0.2540756851   0.1493265418
       -0.0027221310   0.0443266910  -0.0577851138   0.0000046952   0.1064120704
       -0.0370821285   0.0013456995  -0.0159758406   0.0001396530  -0.0001648397
       -0.0036883432   0.0021979481  -0.0191101756   0.0077313831  -0.0027221310
        0.0407825058  -0.0032146481  -0.0009262726  -0.0168871771  -0.0005291333
        0.0014362426  -0.0094165574  -0.0002992585   0.0000142129   0.0046314043
       -0.0285811837  -0.0133985277  -0.0006367022  -0.2670275908   0.0443266910
       -0.0032146481   0.5230478692   0.3551525338   0.0107061919  -0.0356191985
       -0.2306575572  -0.0029118043  -0.1918198962  -0.1554231398  -0.0039430374
       -0.0476935534   0.0315476389  -0.0004704954  -0.0419610118  -0.0577851138
       -0.0009262726   0.3551525338   0.5607766269   0.0103887680  -0.1114781451
       -0.3601019248  -0.0054133229  -0.1540198234  -0.1744372272  -0.0035786770
       -0.0012012302   0.0002067372   0.0037597613  -0.0039812847   0.0000046952
       -0.0168871771   0.0107061919   0.0103887680   0.0455838603  -0.0015958535
       -0.0068902908  -0.0092059940  -0.0039278235  -0.0037099095  -0.0232504506
       -0.0205504875   0.0227722467  -0.0001481820  -0.1230659017   0.1064120704
       -0.0005291333  -0.0356191985  -0.1114781451  -0.0015958535   0.1825527191
       -0.0031597546   0.0025658249  -0.0033171313  -0.0145464174  -0.0002926562
        0.1051010851  -0.0665661344   0.0008892743   0.1309166244  -0.0370821285
        0.0014362426  -0.2306575572  -0.3601019248  -0.0068902908  -0.0031597546
        0.4689535429   0.0048687558  -0.0022003977  -0.0052033552  -0.0003039818
        0.0008019470  -0.0004802558   0.0058199233  -0.0003044984   0.0013456995
       -0.0094165574  -0.0029118043  -0.0054133229  -0.0092059940   0.0025658249
        0.0048687558   0.0066817013  -0.0001514692  -0.0003208766   0.0061209268
       -0.0008738412   0.0022945529   0.0000168513  -0.0042940869  -0.0159758406
       -0.0002992585  -0.1918198962  -0.1540198234  -0.0039278235  -0.0033171313
       -0.0022003977  -0.0001514692   0.2003049557   0.1699015089   0.0043616999
       -0.0031935387   0.0005698798  -0.0000528622   0.0032615869   0.0001396530
        0.0000142129  -0.1554231398  -0.1744372272  -0.0037099095  -0.0145464174
       -0.0052033552  -0.0003208766   0.1699015089   0.1789310495   0.0040694354
        0.0000557299  -0.0000219369   0.0001050561  -0.0001817362  -0.0001648397
        0.0046314043  -0.0039430374  -0.0035786770  -0.0232504506  -0.0002926562
       -0.0003039818   0.0061209268   0.0043616999   0.0040694354   0.0123930633
