      -----------------------------------------------------------      
     |                   =====================                   |     
     |                           x T B                           |     
     |                   =====================                   |     
     |                         S. Grimme                         |     
     |          Mulliken Center for Theoretical Chemistry        |     
     |                    University of Bonn                     |     
      -----------------------------------------------------------      

   * xtb version 6.2.2 (9d81278992624c895f80dd42a50cac0aa55982e2) compiled by '@Darwin' on 04/03/2020

   xtb is free software: you can redistribute it and/or modify it under
   the terms of the GNU Lesser General Public License as published by
   the Free Software Foundation, either version 3 of the License, or
   (at your option) any later version.
   
   xtb is distributed in the hope that it will be useful,
   but WITHOUT ANY WARRANTY; without even the implied warranty of
   MERCHANTABILITY or FITNESS FOR A PARTICULAR PURPOSE.  See the
   GNU Lesser General Public License for more details.
   
   Cite this work as:
   * S. Grimme, C. Bannwarth, P. Shushkov, J. Chem. Theory Comput., 2017,
     13, 1989-2009. DOI: 10.1021/acs.jctc.7b00118
   * C. Bannwarth, S. Ehlert and S. Grimme., J. Chem. Theory Comput., 2019,
     15, 1652-1671. DOI: 10.1021/acs.jctc.8b01176
   * P. Pracht, E. Caldeweyher, S. Ehlert, S. Grimme, ChemRxiv, 2019, preprint.
     DOI: 10.26434/chemrxiv.8326202.v1
   
   for DFT-D4:
   * E. Caldeweyher, C. Bannwarth and S. Grimme, J. Chem. Phys., 2017,
     147, 034112. DOI: 10.1063/1.4993215
   * E. Caldeweyher, S. Ehlert, A. Hansen, H. Neugebauer, S. Spicher,
     C. Bannwarth and S. Grimme, J. Chem. Phys., 2019, 150, 154122.
     DOI: 10.1063/1.5090222
   
   for sTDA-xTB:
   * S. Grimme and C. Bannwarth, J. Chem. Phys., 2016, 145, 054103.
     DOI: 10.1063/1.4959605
   
   in the mass-spec context:
   * V. Asgeirsson, C. Bauer and S. Grimme, Chem. Sci., 2017, 8, 4879.
     DOI: 10.1039/c7sc00601b
   
   for metadynamics refer to:
   * S. Grimme, J. Chem. Theory Comput., 2019, 155, 2847-2862
     DOI: 10.1021/acs.jctc.9b00143
   
   with help from (in alphabetical order)
   C. Bannwarth, F. Bohle, G. Brandenburg, E. Caldeweyher, M. Checinski,
   S. Dohm, S. Ehlert, S. Ehrlich, F. März, H. Neugebauer, J. Pisarek,
   P. Pracht, P. Shushkov, and S. Spicher.
   
 * started run on 2020/05/12 at 11:45:19.292     

           -------------------------------------------------
          |                Calculation Setup                |
           -------------------------------------------------

          program call               : xtb --input C3O1_5_S_2.input C3O1_5_S_2.xyz --ohess --molden --namespace C3O1_5_S_2 output.out
          calculation namespace      : C3O1_5_S_2
          coordinate file            : C3O1_5_S_2.xyz
          number of atoms            :                     4
          number of electrons        :                    18
          charge                     :                     0
          spin                       :                   1.0
          first test random number   :      0.51407236627708

   ID    Z sym.   atoms
    1    6 C      1-3
    2    8 O      4

           -------------------------------------------------
          |                 G F N 2 - x T B                 |
           -------------------------------------------------

        Reference                      10.1021/acs.jctc.8b01176
      * Hamiltonian:
        H0-scaling (s, p, d)           1.850000    2.230000    2.230000
        zeta-weighting                 0.500000
      * Dispersion:
        s8                             2.700000
        a1                             0.520000
        a2                             5.000000
        s9                             5.000000
      * Repulsion:
        kExp                           1.500000    1.000000
        rExp                           1.000000
      * Coulomb:
        alpha                          2.000000
        third order                    shell-resolved
        anisotropic                    true
        a3                             3.000000
        a5                             4.000000
        cn-shift                       1.200000
        cn-exp                         4.000000
        max-rad                        5.000000


          ...................................................
          :                      SETUP                      :
          :.................................................:
          :  # basis functions                  16          :
          :  # atomic orbitals                  16          :
          :  # shells                            8          :
          :  # electrons                        18          :
          :  max. iterations                   250          :
          :  Hamiltonian                  GFN2-xTB          :
          :  restarted?                      false          :
          :  GBSA solvation                  false          :
          :  PC potential                    false          :
          :  electronic temp.          300.0000000     K    :
          :  accuracy                    1.0000000          :
          :  -> integral cutoff          0.2500000E+02      :
          :  -> integral neglect         0.1000000E-07      :
          :  -> SCF convergence          0.1000000E-05 Eh   :
          :  -> wf. convergence          0.1000000E-03 e    :
          :  Broyden damping             0.4000000          :
          ...................................................

 iter      E             dE          RMSdq      gap      omega  full diag
   1    -10.0708099 -0.100708E+02  0.101E+01    0.33       0.0  T
   2     -9.6848895  0.385920E+00  0.960E+00    0.62       1.0  T
   3     -9.8418616 -0.156972E+00  0.816E+00    0.48       1.0  T
   4    -10.1019373 -0.260076E+00  0.325E+00    0.18       1.0  T
   5    -10.1045260 -0.258863E-02  0.229E+00    0.15       1.0  T
   6    -10.1008501  0.367588E-02  0.270E+00    0.16       1.0  T
   7    -10.1128444 -0.119943E-01  0.102E+00    0.09       1.0  T
   8    -10.1129312 -0.868319E-04  0.886E-01    0.09       1.0  T
   9    -10.1152826 -0.235140E-02  0.871E-01    0.04       1.0  T
  10    -10.1149748  0.307787E-03  0.704E-01    0.04       1.0  T
  11    -10.1149589  0.159112E-04  0.464E-01    0.04       1.0  T
  12    -10.1153800 -0.421104E-03  0.292E-01    0.05       1.0  T
  13    -10.1155192 -0.139187E-03  0.417E-02    0.05       1.2  T
  14    -10.1155231 -0.393581E-05  0.186E-02    0.05       2.7  T
  15    -10.1155243 -0.116131E-05  0.489E-03    0.06      10.2  T
  16    -10.1155243 -0.513696E-07  0.690E-04    0.06      72.5  T
  17    -10.1155243 -0.677794E-09  0.582E-05    0.06     858.5  T

   *** convergence criteria satisfied after 17 iterations ***

         #    Occupation            Energy/Eh            Energy/eV
      -------------------------------------------------------------
         1        2.0000           -0.7861386             -21.3919
       ...           ...                  ...                  ...
         4        2.0000           -0.6064251             -16.5017
         5        2.0000           -0.5846591             -15.9094
         6        2.0000           -0.5781036             -15.7310
         7        2.0000           -0.5111190             -13.9083
         8        1.9999           -0.4419609             -12.0264
         9        1.0000           -0.4241458             -11.5416
        10        0.7443           -0.4159646             -11.3190 (HOMO)
        11        0.2558           -0.4139347             -11.2637 (LUMO)
        12                         -0.2691431              -7.3238
        13                         -0.0447135              -1.2167
        14                         -0.0104654              -0.2848
        15                          0.0445482               1.2122
        16                          0.2612580               7.1092
      -------------------------------------------------------------
                  HL-Gap            0.0020299 Eh            0.0552 eV
             Fermi-level           -0.4240015 Eh          -11.5377 eV

 transition dipole moment (au) for excitation:           9          10
     X       Y       Z   
   0.3698   0.2146   0.0225  total (au/Debye):    0.428   1.088
 dE (eV)             :    0.223
 oscillator strength :  0.14139E-02

 SCC (total)                   0 d,  0 h,  0 min,  0.005 sec
 SCC setup                      ...        0 min,  0.000 sec (  2.105%)
 Dispersion                     ...        0 min,  0.000 sec (  0.353%)
 integral evaluation            ...        0 min,  0.001 sec ( 22.652%)
 zeroth order Hamiltonian       ...        0 min,  0.000 sec (  0.398%)
 iterations                     ...        0 min,  0.002 sec ( 33.625%)
 molecular gradient             ...        0 min,  0.001 sec ( 22.916%)
 printout                       ...        0 min,  0.001 sec ( 17.701%)

         :::::::::::::::::::::::::::::::::::::::::::::::::::::
         ::                     SUMMARY                     ::
         :::::::::::::::::::::::::::::::::::::::::::::::::::::
         :: total energy             -10.067157948763 Eh    ::
         :: gradient norm              0.159428553267 Eh/a0 ::
         :: HOMO-LUMO gap              0.055235557974 eV    ::
         ::.................................................::
         :: SCC energy               -10.115524346038 Eh    ::
         :: -> isotropic ES            0.003378251131 Eh    ::
         :: -> anisotropic ES          0.000814625758 Eh    ::
         :: -> anisotropic XC         -0.000509791799 Eh    ::
         :: -> dispersion             -0.001612324864 Eh    ::
         :: repulsion energy           0.048366389985 Eh    ::
         :: add. restraining           0.000000000000 Eh    ::
         :::::::::::::::::::::::::::::::::::::::::::::::::::::

      ----------------------------------------------------------- 
     |                   =====================                   |
     |                        A N C O P T                        |
     |                   =====================                   |
     |               Approximate Normal Coordinate               |
     |                Rational Function Optimizer                |
      ----------------------------------------------------------- 

          ...................................................
          :                      SETUP                      :
          :.................................................:
          :   optimization level            normal          :
          :   max. optcycles                   200          :
          :   ANC micro-cycles                  20          :
          :   degrees of freedom                 6          :
          :.................................................:
          :   RF solver                   davidson          :
          :   write xtbopt.log                true          :
          :   linear?                        false          :
          :   energy convergence         0.5000000E-05 Eh   :
          :   grad. convergence          0.1000000E-02 Eh/α :
          :   maximium RF displ.         1.0000000          :
          :   Hlow (freq-cutoff)         0.1000000E-01      :
          :   Hmax (freq-cutoff)         5.0000000          :
          :   S6 in model hess.         20.0000000          :
          ...................................................

generating ANC from model Hessian ...
Using Lindh-Hessian (1995)
 Shifting diagonal of input Hessian by    0.0000000000000000     
 Lowest  eigenvalues of input Hessian
   -0.000000   -0.000000   -0.000000    0.000000    0.000000    0.000000
    0.037245    0.348396    0.861735    1.008019    1.198535    1.241078
 Highest eigenvalues
    0.037245    0.348396    0.861735    1.008019    1.198535    1.241078


........................................................................
.............................. CYCLE    1 ..............................
........................................................................
   1    -10.1155243 -0.101155E+02  0.736E-05    0.06       0.0  T
   2    -10.1155243  0.712141E-11  0.525E-05    0.06     953.1  T
   3    -10.1155243 -0.941469E-13  0.713E-05    0.06     701.7  T
     SCC iter.                  ...        0 min,  0.000 sec
     gradient                   ...        0 min,  0.001 sec
 * total energy  :   -10.0671579 Eh     change       -0.1939959E-09 Eh
   gradient norm :     0.1594293 Eh/α   predicted     0.0000000E+00 (-100.00%)
   displ. norm   :     0.1718509 α      lambda       -0.2614893E-01
   maximum displ.:     0.1507937 α      in ANC's #4, #2, #6, ...

........................................................................
.............................. CYCLE    2 ..............................
........................................................................
   1    -10.1540020 -0.101540E+02  0.415E+00    0.19       0.0  T
   2    -10.1408624  0.131396E-01  0.221E+00    0.02       1.0  T
   3    -10.1472055 -0.634312E-02  0.312E+00    0.19       1.0  T
   4    -10.1603112 -0.131057E-01  0.107E+00    0.09       1.0  T
   5    -10.1605240 -0.212821E-03  0.247E-01    0.07       1.0  T
   6    -10.1605511 -0.270641E-04  0.584E-02    0.07       1.0  T
   7    -10.1605466  0.453885E-05  0.398E-02    0.07       1.3  T
   8    -10.1605513 -0.469504E-05  0.266E-02    0.07       1.9  T
   9    -10.1605514 -0.102893E-06  0.180E-02    0.07       2.8  T
  10    -10.1605514 -0.786604E-07  0.853E-04    0.07      58.6  T
  11    -10.1605514 -0.156803E-09  0.896E-04    0.07      55.8  T
     SCC iter.                  ...        0 min,  0.001 sec
     gradient                   ...        0 min,  0.001 sec
 * total energy  :   -10.0885187 Eh     change       -0.2136080E-01 Eh
   gradient norm :     0.0931282 Eh/α   predicted    -0.1346059E-01 ( -36.98%)
   displ. norm   :     0.3304400 α      lambda       -0.2808528E-01
   maximum displ.:     0.2427246 α      in ANC's #2, #4, #6, ...

........................................................................
.............................. CYCLE    3 ..............................
........................................................................
   1    -10.2152526 -0.102153E+02  0.217E+00    0.67       0.0  T
   2    -10.2130799  0.217272E-02  0.156E+00    0.47       1.0  T
   3    -10.2179956 -0.491564E-02  0.111E+00    0.62       1.0  T
   4    -10.2208058 -0.281026E-02  0.120E-01    0.57       1.0  T
   5    -10.2208145 -0.864104E-05  0.534E-02    0.57       1.0  T
   6    -10.2208149 -0.476898E-06  0.418E-03    0.57      12.0  T
   7    -10.2208149 -0.129180E-07  0.115E-03    0.57      43.5  T
   8    -10.2208149  0.495064E-08  0.134E-03    0.57      37.2  T
   9    -10.2208149 -0.774680E-08  0.228E-04    0.57     219.5  T
  10    -10.2208149 -0.187939E-09  0.455E-05    0.57    1099.2  T
     SCC iter.                  ...        0 min,  0.001 sec
     gradient                   ...        0 min,  0.001 sec
 * total energy  :   -10.0888715 Eh     change       -0.3527171E-03 Eh
   gradient norm :     0.1463308 Eh/α   predicted    -0.1557596E-01 (4315.99%)
   displ. norm   :     0.1693115 α      lambda       -0.2150899E-01
   maximum displ.:     0.1300561 α      in ANC's #4, #2, #1, ...

........................................................................
.............................. CYCLE    4 ..............................
........................................................................
   1    -10.1882914 -0.101883E+02  0.121E+00    0.31       0.0  T
   2    -10.1876342  0.657194E-03  0.823E-01    0.39       1.0  T
   3    -10.1889624 -0.132813E-02  0.638E-01    0.31       1.0  T
   4    -10.1898946 -0.932255E-03  0.509E-02    0.33       1.0  T
   5    -10.1898947 -0.117731E-06  0.286E-02    0.33       1.8  T
   6    -10.1898949 -0.121515E-06  0.268E-03    0.33      18.6  T
   7    -10.1898948  0.590012E-07  0.345E-03    0.33      14.5  T
   8    -10.1898949 -0.598522E-07  0.116E-03    0.33      43.0  T
   9    -10.1898949 -0.563659E-08  0.141E-04    0.33     355.0  T
  10    -10.1898949 -0.103846E-10  0.354E-05    0.33    1411.7  T
     SCC iter.                  ...        0 min,  0.001 sec
     gradient                   ...        0 min,  0.001 sec
 * total energy  :   -10.0975735 Eh     change       -0.8702054E-02 Eh
   gradient norm :     0.0301688 Eh/α   predicted    -0.1106279E-01 (  27.13%)
   displ. norm   :     0.4043289 α      lambda       -0.7711078E-02
   maximum displ.:     0.4031529 α      in ANC's #1, #4, #2, ...

........................................................................
.............................. CYCLE    5 ..............................
........................................................................
   1    -10.1887679 -0.101888E+02  0.394E+00    1.69       0.0  T
   2    -10.1874471  0.132076E-02  0.229E+00    1.74       1.0  T
   3    -10.1688183  0.186288E-01  0.228E+00    1.78       1.0  T
   4    -10.1913357 -0.225174E-01  0.160E-01    1.81       1.0  T
   5    -10.1913565 -0.207651E-04  0.839E-02    1.81       1.0  T
   6    -10.1913572 -0.734852E-06  0.123E-02    1.81       4.1  T
   7    -10.1913575 -0.221494E-06  0.469E-03    1.81      10.7  T
   8    -10.1913574  0.150279E-07  0.163E-03    1.81      30.6  T
   9    -10.1913575 -0.171441E-07  0.362E-04    1.81     138.2  T
  10    -10.1913575 -0.437353E-09  0.157E-04    1.81     319.1  T
     SCC iter.                  ...        0 min,  0.001 sec
     gradient                   ...        0 min,  0.001 sec
 * total energy  :   -10.1141092 Eh     change       -0.1653566E-01 Eh
   gradient norm :     0.0605827 Eh/α   predicted    -0.4485859E-02 ( -72.87%)
   displ. norm   :     0.8055792 α      lambda       -0.1646904E-01
   maximum displ.:     0.8027255 α      in ANC's #1, #6, #2, ...

........................................................................
.............................. CYCLE    6 ..............................
........................................................................
   1    -10.0608625 -0.100609E+02  0.567E+00    1.65       0.0  T
   2     -9.9492351  0.111627E+00  0.528E+00    1.66       1.0  T
   3    -10.0281214 -0.788862E-01  0.418E+00    1.71       1.0  T
   4    -10.0966043 -0.684829E-01  0.420E-01    1.57       1.0  T
   5    -10.0966824 -0.780970E-04  0.303E-01    1.55       1.0  T
   6    -10.0967220 -0.396745E-04  0.175E-01    1.55       1.0  T
   7    -10.0967838 -0.617616E-04  0.234E-02    1.55       2.1  T
   8    -10.0967844 -0.547190E-06  0.492E-03    1.55      10.2  T
   9    -10.0967842  0.129068E-06  0.545E-03    1.55       9.2  T
  10    -10.0967844 -0.180533E-06  0.808E-04    1.55      61.9  T
  11    -10.0967844 -0.768702E-09  0.742E-05    1.55     674.0  T
     SCC iter.                  ...        0 min,  0.001 sec
     gradient                   ...        0 min,  0.001 sec
 * total energy  :   -10.0609448 Eh     change        0.5316441E-01 Eh
   gradient norm :     0.2172289 Eh/α   predicted    -0.1357840E-01 (-125.54%)
   displ. norm   :     0.4852061 α      lambda       -0.8409158E-01
   maximum displ.:     0.4819399 α      in ANC's #1, #4, #2, ...

........................................................................
.............................. CYCLE    7 ..............................
........................................................................
   1    -10.1706092 -0.101706E+02  0.331E+00    3.33       0.0  T
   2    -10.1511298  0.194794E-01  0.294E+00    2.55       1.0  T
   3    -10.1834811 -0.323513E-01  0.164E+00    3.24       1.0  T
   4    -10.1883709 -0.488981E-02  0.218E-01    3.03       1.0  T
   5    -10.1884489 -0.780544E-04  0.109E-01    3.05       1.0  T
   6    -10.1884525 -0.358794E-05  0.204E-02    3.04       2.5  T
   7    -10.1884541 -0.155683E-05  0.447E-03    3.04      11.2  T
   8    -10.1884541 -0.316986E-07  0.120E-03    3.04      41.7  T
   9    -10.1884541 -0.473500E-08  0.615E-04    3.04      81.3  T
  10    -10.1884541 -0.155766E-08  0.157E-04    3.04     318.2  T
     SCC iter.                  ...        0 min,  0.001 sec
     gradient                   ...        0 min,  0.001 sec
 * total energy  :   -10.1156870 Eh     change       -0.5474227E-01 Eh
   gradient norm :     0.0626334 Eh/α   predicted    -0.5194442E-01 (  -5.11%)
   displ. norm   :     0.1558127 α      lambda       -0.7643824E-02
   maximum displ.:     0.1510554 α      in ANC's #1, #4, #2, ...

........................................................................
.............................. CYCLE    8 ..............................
........................................................................
   1    -10.2080180 -0.102080E+02  0.952E-01    2.93       0.0  T
   2    -10.2077289  0.289021E-03  0.665E-01    2.92       1.0  T
   3    -10.2076039  0.125048E-03  0.549E-01    2.91       1.0  T
   4    -10.2085636 -0.959739E-03  0.534E-02    2.90       1.0  T
   5    -10.2085672 -0.351692E-05  0.310E-02    2.90       1.6  T
   6    -10.2085673 -0.136874E-06  0.204E-03    2.90      24.6  T
   7    -10.2085673  0.198964E-09  0.125E-03    2.90      39.9  T
   8    -10.2085673 -0.261450E-08  0.909E-05    2.90     550.1  T
   9    -10.2085673  0.709477E-11  0.818E-05    2.90     611.2  T
     SCC iter.                  ...        0 min,  0.001 sec
     gradient                   ...        0 min,  0.001 sec
 * total energy  :   -10.1192310 Eh     change       -0.3543971E-02 Eh
   gradient norm :     0.0057969 Eh/α   predicted    -0.3914700E-02 (  10.46%)
   displ. norm   :     0.0084957 α      lambda       -0.3968622E-04
   maximum displ.:     0.0069119 α      in ANC's #1, #6, #2, ...

........................................................................
.............................. CYCLE    9 ..............................
........................................................................
   1    -10.2074433 -0.102074E+02  0.536E-02    2.91       0.0  T
   2    -10.2074429  0.412555E-06  0.397E-02    2.91       1.3  T
   3    -10.2074449 -0.205444E-05  0.269E-02    2.91       1.9  T
   4    -10.2074465 -0.163661E-05  0.800E-03    2.91       6.3  T
   5    -10.2074467 -0.151801E-06  0.164E-03    2.91      30.6  T
   6    -10.2074467 -0.580826E-09  0.154E-04    2.91     325.6  T
   7    -10.2074467 -0.102141E-11  0.105E-04    2.91     474.5  T
     SCC iter.                  ...        0 min,  0.001 sec
     gradient                   ...        0 min,  0.001 sec
 * total energy  :   -10.1192521 Eh     change       -0.2107072E-04 Eh
   gradient norm :     0.0009190 Eh/α   predicted    -0.1984282E-04 (  -5.83%)
   displ. norm   :     0.0018091 α      lambda       -0.9461848E-06
   maximum displ.:     0.0014694 α      in ANC's #6, #1, #2, ...

........................................................................
.............................. CYCLE   10 ..............................
........................................................................
   1    -10.2074052 -0.102074E+02  0.148E-02    2.90       0.0  T
   2    -10.2074053 -0.274809E-07  0.110E-02    2.90       4.6  T
   3    -10.2074055 -0.215393E-06  0.657E-03    2.90       7.6  T
   4    -10.2074056 -0.912486E-07  0.307E-03    2.90      16.3  T
   5    -10.2074056 -0.199966E-07  0.509E-04    2.90      98.3  T
   6    -10.2074056  0.104553E-08  0.519E-04    2.90      96.3  T
     SCC iter.                  ...        0 min,  0.001 sec
     gradient                   ...        0 min,  0.001 sec
 * total energy  :   -10.1192528 Eh     change       -0.7011962E-06 Eh
   gradient norm :     0.0001944 Eh/α   predicted    -0.4717785E-06 ( -32.72%)
   displ. norm   :     0.0005024 α      lambda       -0.4533753E-07
   maximum displ.:     0.0004744 α      in ANC's #1, #4, #2, ...

   *** GEOMETRY OPTIMIZATION CONVERGED AFTER 10 ITERATIONS ***

------------------------------------------------------------------------
 total energy gain   :        -0.0520948 Eh      -32.6900 kcal/mol
 total RMSD          :         0.3675988 a0        0.1945 Å
 total power (kW/mol):       -13.6774967 (step)-4276.3438 (real)
------------------------------------------------------------------------

 ANCopt (total)                0 d,  0 h,  0 min,  0.032 sec
 optimizer setup                ...        0 min,  0.000 sec (  0.231%)
 model hessian                  ...        0 min,  0.000 sec (  0.244%)
 ANC generation                 ...        0 min,  0.000 sec (  0.169%)
 coordinate transformation      ...        0 min,  0.000 sec (  0.075%)
 single point calculation       ...        0 min,  0.031 sec ( 96.633%)
 optimization log               ...        0 min,  0.000 sec (  0.677%)
 hessian update                 ...        0 min,  0.000 sec (  0.086%)
 rational function              ...        0 min,  0.000 sec (  0.725%)

================
 final structure:
================
4
 xtb: 6.2.2 (9d81278992624c895f80dd42a50cac0aa55982e2)
C        -0.73075308345374   -0.43044040289875    0.11417284668793
C        -0.51998824136362    0.91787030981952   -0.20999130170876
C         0.72176758654187    0.41267665115455    0.20264678750694
O         0.52897373827549   -0.90010655807531   -0.10682833248611

 Bond Distances (Angstroems)
 ---------------------------
C1-C2=1.4027         C1-C3=1.6818         C1-O4=1.3625         C2-C1=1.4027         C2-C3=1.4027         C3-C1=1.6818         
C3-C2=1.4027         C3-O4=1.3625         O4-C1=1.3625         O4-C3=1.3625         
 C  C  Rav=1.4957 sigma=0.1316  Rmin=1.4027  Rmax=1.6818     3
 O  C  Rav=1.3625 sigma=0.0000  Rmin=1.3625  Rmax=1.3625     2

 selected bond angles (degree)
 --------------------
C3-C1-C2= 53.17                O4-C1-C2= 98.91                O4-C1-C3= 51.89                C3-C2-C1= 73.67                
C2-C3-C1= 53.17                O4-C3-C1= 51.89                O4-C3-C2= 98.91                C3-O4-C1= 76.22                

 selected dihedral angles (degree)
 ---------------------------------
C3-C2-C1-O4=333.90            C2-C3-C1-O4=146.47            O4-C3-C1-C2=213.53            O4-C3-C2-C1= 26.10            
C3-O4-C1-C2= 26.58            C1-O4-C3-C2=333.42            
           -------------------------------------------------
          |                Final Singlepoint                |
           -------------------------------------------------

          ...................................................
          :                      SETUP                      :
          :.................................................:
          :  # basis functions                  16          :
          :  # atomic orbitals                  16          :
          :  # shells                            8          :
          :  # electrons                        18          :
          :  max. iterations                   250          :
          :  Hamiltonian                  GFN2-xTB          :
          :  restarted?                      false          :
          :  GBSA solvation                  false          :
          :  PC potential                    false          :
          :  electronic temp.          300.0000000     K    :
          :  accuracy                    1.0000000          :
          :  -> integral cutoff          0.2500000E+02      :
          :  -> integral neglect         0.1000000E-07      :
          :  -> SCF convergence          0.1000000E-05 Eh   :
          :  -> wf. convergence          0.1000000E-03 e    :
          :  Broyden damping             0.4000000          :
          ...................................................

 iter      E             dE          RMSdq      gap      omega  full diag
   1    -10.2074056 -0.102074E+02  0.171E-04    2.90       0.0  T
   2    -10.2074056  0.113509E-11  0.114E-04    2.90     437.5  T
   3    -10.2074056  0.742943E-10  0.109E-04    2.90     457.7  T

   *** convergence criteria satisfied after 3 iterations ***

         #    Occupation            Energy/Eh            Energy/eV
      -------------------------------------------------------------
         1        2.0000           -0.8037090             -21.8700
       ...           ...                  ...                  ...
         4        2.0000           -0.6303176             -17.1518
         5        2.0000           -0.5934964             -16.1499
         6        2.0000           -0.5795545             -15.7705
         7        2.0000           -0.4858981             -13.2220
         8        2.0000           -0.4674929             -12.7211
         9        1.0000           -0.4178324             -11.3698
        10        1.0000           -0.4144963             -11.2790 (HOMO)
        11                         -0.3077652              -8.3747 (LUMO)
        12                         -0.2673417              -7.2747
        13                          0.0835396               2.2732
        14                          0.1047536               2.8505
        15                          0.1270567               3.4574
        16                          0.4178089              11.3692
      -------------------------------------------------------------
                  HL-Gap            0.1067311 Eh            2.9043 eV
             Fermi-level           -0.4019037 Eh          -10.9364 eV

 transition dipole moment (au) for excitation:           9          10
     X       Y       Z   
  -0.4019  -0.2332  -0.0245  total (au/Debye):    0.465   1.183
 dE (eV)             :    0.091
 oscillator strength :  0.68101E-03

 SCC (total)                   0 d,  0 h,  0 min,  0.004 sec
 SCC setup                      ...        0 min,  0.000 sec (  1.600%)
 Dispersion                     ...        0 min,  0.000 sec (  0.254%)
 integral evaluation            ...        0 min,  0.001 sec ( 29.966%)
 zeroth order Hamiltonian       ...        0 min,  0.000 sec (  0.341%)
 iterations                     ...        0 min,  0.000 sec ( 14.039%)
 molecular gradient             ...        0 min,  0.001 sec ( 30.127%)
 printout                       ...        0 min,  0.001 sec ( 23.331%)

         :::::::::::::::::::::::::::::::::::::::::::::::::::::
         ::                     SUMMARY                     ::
         :::::::::::::::::::::::::::::::::::::::::::::::::::::
         :: total energy             -10.119252784309 Eh    ::
         :: gradient norm              0.000195438351 Eh/a0 ::
         :: HOMO-LUMO gap              2.904300456019 eV    ::
         ::.................................................::
         :: SCC energy               -10.207405583384 Eh    ::
         :: -> isotropic ES            0.002510933580 Eh    ::
         :: -> anisotropic ES          0.002682182862 Eh    ::
         :: -> anisotropic XC         -0.000694202070 Eh    ::
         :: -> dispersion             -0.001575417732 Eh    ::
         :: repulsion energy           0.088152794662 Eh    ::
         :: add. restraining           0.000000000000 Eh    ::
         :::::::::::::::::::::::::::::::::::::::::::::::::::::

           ------------------------------------------------- 
          |                Numerical Hessian                |
           ------------------------------------------------- 
step length          :   0.00500
SCC accuracy         :   0.30000
Hessian scale factor :   1.00000
frozen atoms in %    :   0.00000    0
RMS gradient         :   0.00020
estimated CPU  time      0.00 min
estimated wall time      0.00 min

writing file <hessian>.

 projected vibrational frequencies (cm-1)
eigval :       -0.00    -0.00    -0.00     0.00     0.00     0.00
eigval :      585.52   693.21   811.80   836.28  1220.56  1421.65
           -------------------------------------------------
          |                Property Printout                |
           -------------------------------------------------

    * Orbital Energies and Occupations

         #    Occupation            Energy/Eh            Energy/eV
      -------------------------------------------------------------
         1        2.0000           -0.8037090             -21.8700
         2        2.0000           -0.7140610             -19.4306
         3        2.0000           -0.6802111             -18.5095
         4        2.0000           -0.6303175             -17.1518
         5        2.0000           -0.5934964             -16.1499
         6        2.0000           -0.5795545             -15.7705
         7        2.0000           -0.4858981             -13.2220
         8        2.0000           -0.4674930             -12.7211
         9        1.0000           -0.4178324             -11.3698
        10        1.0000           -0.4144963             -11.2790 (HOMO)
        11                         -0.3077652              -8.3747 (LUMO)
Molecule has the following symmetry elements: (sigma) 
It seems to be the Cs point group
        12                         -0.2673417              -7.2747
        13                          0.0835396               2.2732
        14                          0.1047537               2.8505
        15                          0.1270567               3.4574
        16                          0.4178089              11.3692
      -------------------------------------------------------------
                  HL-Gap            0.1067311 Eh            2.9043 eV
             Fermi-level           -0.4019037 Eh          -10.9364 eV

     #   Z        covCN         q      C6AA      α(0)
     1   6 C      2.769     0.084    26.112     8.369
     2   6 C      2.017    -0.038    32.040     9.142
     3   6 C      2.769     0.084    26.112     8.369
     4   8 O      1.763    -0.130    16.254     5.444

 Mol. C6AA /au·bohr⁶  :        394.569445
 Mol. C8AA /au·bohr⁸  :      10668.752855
 Mol. α(0) /au        :         31.323358


Wiberg/Mayer (AO) data.
largest (>0.10) Wiberg bond orders for each atom
          total WBO             WBO to atom ...
     1  C   2.847        C    2 1.251    O    4 1.026    C    3 0.570
     2  C   2.677        C    1 1.251    C    3 1.251    O    4 0.175
     3  C   2.847        C    2 1.251    O    4 1.026    C    1 0.570
     4  O   2.227        C    1 1.026    C    3 1.026    C    2 0.175

MOs/occ written to file <molden.input>


molecular dipole:
                 x           y           z       tot (Debye)
 q only:       -0.094       0.152       0.092
   full:        0.054      -0.116       0.222       0.651
molecular quadrupole (traceless):
                xx          xy          yy          xz          yz          zz
 q only:        0.339       0.704      -0.461       0.045      -0.012       0.122
  q+dip:       -0.579       0.066      -0.648      -0.055      -0.092       1.227
   full:       -0.835       0.205      -1.131      -0.379       0.369       1.966

           -------------------------------------------------
          |                Geometry Summary                 |
           -------------------------------------------------

      molecular mass/u    :       52.0316126
   center of mass at/Å    :        0.0405500      -0.0690011      -0.0081893
  moments of inertia/u·Å² :        0.1827151E+02   0.3178647E+02   0.4748722E+02
rotational constants/cm⁻¹ :        0.9226185E+00   0.5303398E+00   0.3549931E+00

 * 2 selected distances

     #   Z        #   Z                                     value/Å
     1   6 C      4   8 O                                 1.3624755 (min)
     3   6 C      4   8 O                                 1.3624772 (max)

 * 1 distinct bonds (by element types)

   Z      Z             #   av. dist./Å        max./Å        min./Å
   6 C    8 O           2     1.3624763     1.3624772     1.3624755

           -------------------------------------------------
          |               Frequency Printout                |
           -------------------------------------------------
 projected vibrational frequencies (cm-1)
eigval :       -0.00    -0.00    -0.00     0.00     0.00     0.00
eigval :      585.52   693.21   811.80   836.28  1220.56  1421.65
 reduced masses (amu)
   1: 13.48   2: 13.44   3: 12.16   4: 12.79   5: 13.36   6: 13.69   7: 12.76   8: 13.34
   9: 12.15  10: 13.02  11: 13.67  12: 12.23
 IR intensities (amu)
   1:  0.07   2:  0.12   3:  0.08   4:  0.04   5:  0.04   6:  0.06   7:  0.46   8:  0.89
   9:  1.71  10:  0.22  11:  1.70  12:  0.39
 Raman intensities (amu)
   1:  0.00   2:  0.00   3:  0.00   4:  0.00   5:  0.00   6:  0.00   7:  0.00   8:  0.00
   9:  0.00  10:  0.00  11:  0.00  12:  0.00
 output can be read by thermo (or use thermo option).
 writing <g98.out> molden fake output.
 recommended (thermochemical) frequency scaling factor: 1.0
           -------------------------------------------------
          |             Thermodynamic Functions             |
           -------------------------------------------------

cs  symmetry found (for desy threshold:  0.10E+00) used in thermo

          ...................................................
          :                      SETUP                      :
          :.................................................:
          :  # frequencies                           6      :
          :  # imaginary freq.                       0      :
          :  linear?                             false      :
          :  only rotor calc.                    false      :
          :  symmetry                               cs      :
          :  rotational number                       1      :
          :  scaling factor                  1.0000000      :
          :  rotor cutoff                   50.0000000 cm⁻¹ :
          :  imag. cutoff                  -20.0000000 cm⁻¹ :
          :.................................................:

    mode    ω/cm⁻¹     T·S(HO)/kcal·mol⁻¹    T·S(FR)/kcal·mol⁻¹   T·S(vib)
   ------------------------------------------------------------------------
   ------------------------------------------------------------------------

   temp. (K)  partition function   enthalpy   heat capacity  entropy
                                   cal/mol     cal/K/mol   cal/K/mol   J/K/mol
 298.15  VIB   1.15                  281.996      3.419      1.222
         ROT  0.127E+05              888.752      2.981     21.757
         INT  0.146E+05             1170.748      6.400     22.979
         TR   0.363E+27             1481.254      4.968     37.753
         TOT                        2652.0024    11.3685    60.7322   254.1033

   temp. (K)  partition function   enthalpy   heat capacity  entropy
                                   cal/mol     cal/K/mol   cal/K/mol   J/K/mol
 120.00  VIB   1.00                    2.229      0.142      0.021
         ROT  0.324E+04              357.707      2.981     19.044
         INT  0.324E+04              359.936      3.123     19.065
         TR   0.927E+26              596.178      4.968     33.234
         TOT                         956.1142     8.0907    52.2994   218.8205

   temp. (K)  partition function   enthalpy   heat capacity  entropy
                                   cal/mol     cal/K/mol   cal/K/mol   J/K/mol
 100.00  VIB   1.00                    0.494      0.044      0.005
         ROT  0.246E+04              298.089      2.981     18.501
         INT  0.246E+04              298.583      3.025     18.506
         TR   0.705E+26              496.815      4.968     32.329
         TOT                         795.3978     7.9932    50.8349   212.6934

   temp. (K)  partition function   enthalpy   heat capacity  entropy
                                   cal/mol     cal/K/mol   cal/K/mol   J/K/mol
  80.00  VIB   1.00                    0.054      0.007      0.001
         ROT  0.176E+04              238.471      2.981     17.836
         INT  0.176E+04              238.525      2.988     17.836
         TR   0.505E+26              397.452      4.968     31.221
         TOT                         635.9773     7.9564    49.0569   205.2542

   temp. (K)  partition function   enthalpy   heat capacity  entropy
                                   cal/mol     cal/K/mol   cal/K/mol   J/K/mol
  60.00  VIB   1.00                    0.001      0.000     -0.000
         ROT  0.115E+04              178.853      2.981     16.978
         INT  0.115E+04              178.855      2.981     16.978
         TR   0.328E+26              298.089      4.968     29.792
         TOT                         476.9439     7.9494    46.7701   195.6860

   temp. (K)  partition function   enthalpy   heat capacity  entropy
                                   cal/mol     cal/K/mol   cal/K/mol   J/K/mol
  40.00  VIB   1.00                    0.000      0.000     -0.000
         ROT   623.                  119.236      2.981     15.769
         INT   623.                  119.236      2.981     15.769
         TR   0.178E+26              198.726      4.968     27.779
         TOT                         317.9616     7.9490    43.5479   182.2046

   temp. (K)  partition function   enthalpy   heat capacity  entropy
                                   cal/mol     cal/K/mol   cal/K/mol   J/K/mol
  20.00  VIB   1.00                    0.000      0.000     -0.000
         ROT   220.                   59.618      2.981     13.703
         INT   220.                   59.618      2.981     13.703
         TR   0.631E+25               99.363      4.968     24.337
         TOT                         158.9808     7.9490    38.0397   159.1581

   temp. (K)  partition function   enthalpy   heat capacity  entropy
                                   cal/mol     cal/K/mol   cal/K/mol   J/K/mol
  10.00  VIB   1.00                    0.000      0.000     -0.000
         ROT   77.9                   29.809      2.981     11.637
         INT   77.9                   29.809      2.981     11.637
         TR   0.223E+25               49.681      4.968     20.895
         TOT                          79.4904     7.9490    32.5314   136.1115

       T/K    H(0)-H(T)+PV         H(T)/Eh          T*S/Eh         G(T)/Eh
   ------------------------------------------------------------------------
    298.15    0.422623E-02    0.169134E-01    0.288558E-01   -0.119424E-01
    120.00    0.152367E-02    0.142108E-01    0.100013E-01    0.420949E-02
    100.00    0.126755E-02    0.139547E-01    0.810106E-02    0.585362E-02
     80.00    0.101349E-02    0.137006E-01    0.625417E-02    0.744646E-02
     60.00    0.760058E-03    0.134472E-01    0.447197E-02    0.897523E-02
     40.00    0.506704E-03    0.131938E-01    0.277592E-02    0.104179E-01
     20.00    0.253352E-03    0.129405E-01    0.121240E-02    0.117281E-01
     10.00    0.126676E-03    0.128138E-01    0.518421E-03    0.122954E-01 (used)
   ------------------------------------------------------------------------

         :::::::::::::::::::::::::::::::::::::::::::::::::::::
         ::                  THERMODYNAMIC                  ::
         :::::::::::::::::::::::::::::::::::::::::::::::::::::
         :: total free energy         -10.106957388621 Eh   ::
         ::.................................................::
         :: total energy              -10.119252784336 Eh   ::
         :: zero point energy           0.012687141175 Eh   ::
         :: G(RRHO) w/o ZPVE           -0.000391745460 Eh   ::
         :: G(RRHO) contrib.            0.012295395715 Eh   ::
         :::::::::::::::::::::::::::::::::::::::::::::::::::::

optimized geometry written to: xtbopt.xyz


           -------------------------------------------------
          | TOTAL ENERGY              -10.119252784336 Eh   |
          | TOTAL ENTHALPY            -10.106438967146 Eh   |
          | TOTAL FREE ENERGY         -10.106957388621 Eh   |
          | GRADIENT NORM               0.000195440521 Eh/α |
          | HOMO-LUMO GAP               2.904300455839 eV   |
           -------------------------------------------------

------------------------------------------------------------------------
 * finished run on 2020/05/12 at 11:45:19.420     
------------------------------------------------------------------------
 total:
 * wall-time:     0 d,  0 h,  0 min,  0.128 sec
 *  cpu-time:     0 d,  0 h,  0 min,  0.127 sec
 * ratio c/w:     0.998 speedup
 SCF:
 * wall-time:     0 d,  0 h,  0 min,  0.005 sec
 *  cpu-time:     0 d,  0 h,  0 min,  0.005 sec
 * ratio c/w:     1.000 speedup
 ANC optimizer:
 * wall-time:     0 d,  0 h,  0 min,  0.036 sec
 *  cpu-time:     0 d,  0 h,  0 min,  0.036 sec
 * ratio c/w:     0.999 speedup
 numerical hessian:
 * wall-time:     0 d,  0 h,  0 min,  0.069 sec
 *  cpu-time:     0 d,  0 h,  0 min,  0.068 sec
 * ratio c/w:     0.998 speedup

