      -----------------------------------------------------------      
     |                   =====================                   |     
     |                           x T B                           |     
     |                   =====================                   |     
     |                         S. Grimme                         |     
     |          Mulliken Center for Theoretical Chemistry        |     
     |                    University of Bonn                     |     
      -----------------------------------------------------------      

   * xtb version 6.2.2 (9d81278992624c895f80dd42a50cac0aa55982e2) compiled by '@Darwin' on 04/03/2020

   xtb is free software: you can redistribute it and/or modify it under
   the terms of the GNU Lesser General Public License as published by
   the Free Software Foundation, either version 3 of the License, or
   (at your option) any later version.
   
   xtb is distributed in the hope that it will be useful,
   but WITHOUT ANY WARRANTY; without even the implied warranty of
   MERCHANTABILITY or FITNESS FOR A PARTICULAR PURPOSE.  See the
   GNU Lesser General Public License for more details.
   
   Cite this work as:
   * S. Grimme, C. Bannwarth, P. Shushkov, J. Chem. Theory Comput., 2017,
     13, 1989-2009. DOI: 10.1021/acs.jctc.7b00118
   * C. Bannwarth, S. Ehlert and S. Grimme., J. Chem. Theory Comput., 2019,
     15, 1652-1671. DOI: 10.1021/acs.jctc.8b01176
   * P. Pracht, E. Caldeweyher, S. Ehlert, S. Grimme, ChemRxiv, 2019, preprint.
     DOI: 10.26434/chemrxiv.8326202.v1
   
   for DFT-D4:
   * E. Caldeweyher, C. Bannwarth and S. Grimme, J. Chem. Phys., 2017,
     147, 034112. DOI: 10.1063/1.4993215
   * E. Caldeweyher, S. Ehlert, A. Hansen, H. Neugebauer, S. Spicher,
     C. Bannwarth and S. Grimme, J. Chem. Phys., 2019, 150, 154122.
     DOI: 10.1063/1.5090222
   
   for sTDA-xTB:
   * S. Grimme and C. Bannwarth, J. Chem. Phys., 2016, 145, 054103.
     DOI: 10.1063/1.4959605
   
   in the mass-spec context:
   * V. Asgeirsson, C. Bauer and S. Grimme, Chem. Sci., 2017, 8, 4879.
     DOI: 10.1039/c7sc00601b
   
   for metadynamics refer to:
   * S. Grimme, J. Chem. Theory Comput., 2019, 155, 2847-2862
     DOI: 10.1021/acs.jctc.9b00143
   
   with help from (in alphabetical order)
   C. Bannwarth, F. Bohle, G. Brandenburg, E. Caldeweyher, M. Checinski,
   S. Dohm, S. Ehlert, S. Ehrlich, F. März, H. Neugebauer, J. Pisarek,
   P. Pracht, P. Shushkov, and S. Spicher.
   
 * started run on 2020/05/12 at 11:44:11.114     

           -------------------------------------------------
          |                Calculation Setup                |
           -------------------------------------------------

          program call               : xtb --input C4N1_29_S_3.input C4N1_29_S_3.xyz --ohess --molden --namespace C4N1_29_S_3 output.out
          calculation namespace      : C4N1_29_S_3
          coordinate file            : C4N1_29_S_3.xyz
          number of atoms            :                     5
          number of electrons        :                    21
          charge                     :                     0
          spin                       :                   1.5
          first test random number   :      0.77438079425307

   ID    Z sym.   atoms
    1    6 C      1, 3-5
    2    7 N      2

           -------------------------------------------------
          |                 G F N 2 - x T B                 |
           -------------------------------------------------

        Reference                      10.1021/acs.jctc.8b01176
      * Hamiltonian:
        H0-scaling (s, p, d)           1.850000    2.230000    2.230000
        zeta-weighting                 0.500000
      * Dispersion:
        s8                             2.700000
        a1                             0.520000
        a2                             5.000000
        s9                             5.000000
      * Repulsion:
        kExp                           1.500000    1.000000
        rExp                           1.000000
      * Coulomb:
        alpha                          2.000000
        third order                    shell-resolved
        anisotropic                    true
        a3                             3.000000
        a5                             4.000000
        cn-shift                       1.200000
        cn-exp                         4.000000
        max-rad                        5.000000


          ...................................................
          :                      SETUP                      :
          :.................................................:
          :  # basis functions                  20          :
          :  # atomic orbitals                  20          :
          :  # shells                           10          :
          :  # electrons                        21          :
          :  max. iterations                   250          :
          :  Hamiltonian                  GFN2-xTB          :
          :  restarted?                      false          :
          :  GBSA solvation                  false          :
          :  PC potential                    false          :
          :  electronic temp.          300.0000000     K    :
          :  accuracy                    1.0000000          :
          :  -> integral cutoff          0.2500000E+02      :
          :  -> integral neglect         0.1000000E-07      :
          :  -> SCF convergence          0.1000000E-05 Eh   :
          :  -> wf. convergence          0.1000000E-03 e    :
          :  Broyden damping             0.4000000          :
          ...................................................

 iter      E             dE          RMSdq      gap      omega  full diag
   1    -10.9422443 -0.109422E+02  0.100E+01    1.79       0.0  T
   2    -10.9655123 -0.232680E-01  0.672E+00    1.74       1.0  T
   3    -10.9637860  0.172636E-02  0.175E+00    1.67       1.0  T
   4    -10.9714405 -0.765457E-02  0.555E-01    1.67       1.0  T
   5    -10.9692853  0.215523E-02  0.649E-01    1.67       1.0  T
   6    -10.9715673 -0.228194E-02  0.293E-01    1.69       1.0  T
   7    -10.9720536 -0.486385E-03  0.840E-02    1.69       1.0  T
   8    -10.9720906 -0.369416E-04  0.476E-02    1.69       1.0  T
   9    -10.9720944 -0.378653E-05  0.179E-02    1.69       2.5  T
  10    -10.9720946 -0.258120E-06  0.792E-03    1.69       5.6  T
  11    -10.9720949 -0.309466E-06  0.637E-04    1.69      70.2  T
  12    -10.9720949 -0.669720E-09  0.603E-05    1.69     741.4  T

   *** convergence criteria satisfied after 12 iterations ***

         #    Occupation            Energy/Eh            Energy/eV
      -------------------------------------------------------------
         1        2.0000           -0.7776060             -21.1597
       ...           ...                  ...                  ...
         6        2.0000           -0.5552823             -15.1100
         7        2.0000           -0.5420101             -14.7488
         8        2.0000           -0.4869749             -13.2513
         9        1.9995           -0.4654997             -12.6669
        10        1.0005           -0.4510168             -12.2728
        11        1.0000           -0.4301426             -11.7048
        12        1.0000           -0.4146429             -11.2830 (HOMO)
        13                         -0.3524626              -9.5910 (LUMO)
        14                         -0.3033497              -8.2546
        15                         -0.2288279              -6.2267
        16                         -0.0959921              -2.6121
        17                         -0.0643340              -1.7506
       ...                                ...                  ...
        20                          0.2994318               8.1480
      -------------------------------------------------------------
                  HL-Gap            0.0621804 Eh            1.6920 eV
             Fermi-level           -0.4208367 Eh          -11.4515 eV

 SCC (total)                   0 d,  0 h,  0 min,  0.005 sec
 SCC setup                      ...        0 min,  0.000 sec (  2.316%)
 Dispersion                     ...        0 min,  0.000 sec (  0.505%)
 integral evaluation            ...        0 min,  0.002 sec ( 36.032%)
 zeroth order Hamiltonian       ...        0 min,  0.000 sec (  0.426%)
 iterations                     ...        0 min,  0.002 sec ( 32.285%)
 molecular gradient             ...        0 min,  0.001 sec ( 27.274%)
 printout                       ...        0 min,  0.000 sec (  0.973%)

         :::::::::::::::::::::::::::::::::::::::::::::::::::::
         ::                     SUMMARY                     ::
         :::::::::::::::::::::::::::::::::::::::::::::::::::::
         :: total energy             -10.876961273641 Eh    ::
         :: gradient norm              0.083208465697 Eh/a0 ::
         :: HOMO-LUMO gap              1.692013733699 eV    ::
         ::.................................................::
         :: SCC energy               -10.972094940560 Eh    ::
         :: -> isotropic ES           -0.021786902753 Eh    ::
         :: -> anisotropic ES          0.005613206959 Eh    ::
         :: -> anisotropic XC          0.007038593920 Eh    ::
         :: -> dispersion             -0.002999324614 Eh    ::
         :: repulsion energy           0.095133628694 Eh    ::
         :: add. restraining           0.000000000000 Eh    ::
         :::::::::::::::::::::::::::::::::::::::::::::::::::::

      ----------------------------------------------------------- 
     |                   =====================                   |
     |                        A N C O P T                        |
     |                   =====================                   |
     |               Approximate Normal Coordinate               |
     |                Rational Function Optimizer                |
      ----------------------------------------------------------- 

          ...................................................
          :                      SETUP                      :
          :.................................................:
          :   optimization level            normal          :
          :   max. optcycles                   200          :
          :   ANC micro-cycles                  20          :
          :   degrees of freedom                 9          :
          :.................................................:
          :   RF solver                   davidson          :
          :   write xtbopt.log                true          :
          :   linear?                        false          :
          :   energy convergence         0.5000000E-05 Eh   :
          :   grad. convergence          0.1000000E-02 Eh/α :
          :   maximium RF displ.         1.0000000          :
          :   Hlow (freq-cutoff)         0.1000000E-01      :
          :   Hmax (freq-cutoff)         5.0000000          :
          :   S6 in model hess.         20.0000000          :
          ...................................................

generating ANC from model Hessian ...
Using Lindh-Hessian (1995)
 Shifting diagonal of input Hessian by    0.0000000000000000     
 Lowest  eigenvalues of input Hessian
   -0.000000   -0.000000   -0.000000   -0.000000   -0.000000    0.000000
    0.064094    0.156072    0.199680    0.548731    0.827237    1.004874
    1.063441    1.395620    1.613492
 Highest eigenvalues
    0.548731    0.827237    1.004874    1.063441    1.395620    1.613492


........................................................................
.............................. CYCLE    1 ..............................
........................................................................
   1    -10.9720949 -0.109721E+02  0.407E-05    1.69       0.0  T
   2    -10.9720949  0.105160E-11  0.297E-05    1.69    1506.6  T
   3    -10.9720949  0.306954E-10  0.593E-05    1.69     753.9  T
     SCC iter.                  ...        0 min,  0.000 sec
     gradient                   ...        0 min,  0.001 sec
 * total energy  :   -10.8769613 Eh     change        0.6657785E-10 Eh
   gradient norm :     0.0832088 Eh/α   predicted     0.0000000E+00 (-100.00%)
   displ. norm   :     0.1390480 α      lambda       -0.8336242E-02
   maximum displ.:     0.1207093 α      in ANC's #3, #5, #8, ...

........................................................................
.............................. CYCLE    2 ..............................
........................................................................
   1    -10.9928221 -0.109928E+02  0.104E+00    2.27       0.0  T
   2    -10.9929100 -0.878741E-04  0.568E-01    2.26       1.0  T
   3    -10.9928748  0.352088E-04  0.116E-01    2.25       1.0  T
   4    -10.9914364  0.143842E-02  0.474E-01    2.25       1.0  T
   5    -10.9929363 -0.149995E-02  0.456E-02    2.25       1.0  T
   6    -10.9929391 -0.278270E-05  0.141E-02    2.25       3.2  T
   7    -10.9929379  0.121804E-05  0.162E-02    2.25       2.8  T
   8    -10.9929397 -0.184903E-05  0.350E-03    2.25      12.8  T
   9    -10.9929397 -0.152173E-07  0.118E-03    2.25      38.0  T
  10    -10.9929397 -0.992897E-08  0.245E-04    2.25     182.8  T
  11    -10.9929397 -0.135881E-09  0.922E-06    2.25    4852.5  T
     SCC iter.                  ...        0 min,  0.001 sec
     gradient                   ...        0 min,  0.001 sec
 * total energy  :   -10.8834718 Eh     change       -0.6510512E-02 Eh
   gradient norm :     0.0598245 Eh/α   predicted    -0.4248707E-02 ( -34.74%)
   displ. norm   :     0.6630445 α      lambda       -0.3043069E-01
   maximum displ.:     0.6160307 α      in ANC's #3, #8, #5, ...

........................................................................
.............................. CYCLE    3 ..............................
........................................................................
   1    -11.1084052 -0.111084E+02  0.389E+00    3.83       0.0  T
   2    -11.1115082 -0.310299E-02  0.208E+00    3.81       1.0  T
   3    -11.1116221 -0.113921E-03  0.599E-01    3.79       1.0  T
   4    -11.1122230 -0.600878E-03  0.190E-01    3.78       1.0  T
   5    -11.1122300 -0.699230E-05  0.232E-02    3.78       1.9  T
   6    -11.1122269  0.308522E-05  0.250E-02    3.78       1.8  T
   7    -11.1122305 -0.361628E-05  0.774E-03    3.78       5.8  T
   8    -11.1122308 -0.246413E-06  0.169E-03    3.78      26.4  T
   9    -11.1122308 -0.186383E-07  0.504E-04    3.78      88.7  T
  10    -11.1122308 -0.673470E-10  0.327E-04    3.78     136.7  T
     SCC iter.                  ...        0 min,  0.001 sec
     gradient                   ...        0 min,  0.001 sec
 * total energy  :   -10.9125508 Eh     change       -0.2907902E-01 Eh
   gradient norm :     0.1543129 Eh/α   predicted    -0.2190443E-01 ( -24.67%)
   displ. norm   :     0.2055820 α      lambda       -0.1831641E-01
   maximum displ.:     0.1592369 α      in ANC's #3, #5, #8, ...

........................................................................
.............................. CYCLE    4 ..............................
........................................................................
   1    -11.0589611 -0.110590E+02  0.120E+00    3.15       0.0  T
   2    -11.0592205 -0.259332E-03  0.651E-01    3.21       1.0  T
   3    -11.0592302 -0.975350E-05  0.172E-01    3.18       1.0  T
   4    -11.0592752 -0.449346E-04  0.527E-02    3.21       1.0  T
   5    -11.0592560  0.191936E-04  0.488E-02    3.21       1.0  T
   6    -11.0592760 -0.200506E-04  0.524E-03    3.21       8.5  T
   7    -11.0592760 -0.260500E-08  0.246E-03    3.21      18.2  T
   8    -11.0592760 -0.209379E-07  0.107E-03    3.21      41.9  T
   9    -11.0592760 -0.594092E-08  0.385E-04    3.21     116.0  T
  10    -11.0592760 -0.710710E-09  0.201E-04    3.21     222.1  T
     SCC iter.                  ...        0 min,  0.001 sec
     gradient                   ...        0 min,  0.001 sec
 * total energy  :   -10.9162764 Eh     change       -0.3725643E-02 Eh
   gradient norm :     0.0548708 Eh/α   predicted    -0.9545261E-02 ( 156.20%)
   displ. norm   :     0.2033351 α      lambda       -0.7475423E-02
   maximum displ.:     0.2011482 α      in ANC's #3, #8, #5, ...

........................................................................
.............................. CYCLE    5 ..............................
........................................................................
   1    -11.0732075 -0.110732E+02  0.962E-01    3.42       0.0  T
   2    -11.0735663 -0.358764E-03  0.466E-01    3.34       1.0  T
   3    -11.0735906 -0.243414E-04  0.175E-01    3.37       1.0  T
   4    -11.0736292 -0.385675E-04  0.241E-02    3.35       1.9  T
   5    -11.0736174  0.117549E-04  0.390E-02    3.35       1.1  T
   6    -11.0736298 -0.124037E-04  0.133E-03    3.35      33.5  T
   7    -11.0736298 -0.337172E-09  0.746E-04    3.35      59.9  T
   8    -11.0736298  0.393125E-08  0.769E-04    3.35      58.1  T
     SCC iter.                  ...        0 min,  0.001 sec
     gradient                   ...        0 min,  0.001 sec
 * total energy  :   -10.9212096 Eh     change       -0.4933125E-02 Eh
   gradient norm :     0.0271675 Eh/α   predicted    -0.3892249E-02 ( -21.10%)
   displ. norm   :     0.1209106 α      lambda       -0.2089608E-02
   maximum displ.:     0.1136395 α      in ANC's #3, #5, #8, ...

........................................................................
.............................. CYCLE    6 ..............................
........................................................................
   1    -11.0777119 -0.110777E+02  0.597E-01    3.33       0.0  T
   2    -11.0777912 -0.792334E-04  0.299E-01    3.29       1.0  T
   3    -11.0777960 -0.484511E-05  0.860E-02    3.30       1.0  T
   4    -11.0778063 -0.102461E-04  0.200E-02    3.29       2.2  T
   5    -11.0778026  0.363043E-05  0.265E-02    3.29       1.7  T
   6    -11.0778078 -0.512163E-05  0.104E-03    3.29      43.2  T
   7    -11.0778078  0.628873E-08  0.118E-03    3.29      37.8  T
   8    -11.0778078 -0.803849E-08  0.357E-04    3.29     125.3  T
   9    -11.0778078 -0.287779E-09  0.691E-05    3.29     647.1  T
     SCC iter.                  ...        0 min,  0.001 sec
     gradient                   ...        0 min,  0.001 sec
 * total energy  :   -10.9226296 Eh     change       -0.1419979E-02 Eh
   gradient norm :     0.0208947 Eh/α   predicted    -0.1060078E-02 ( -25.35%)
   displ. norm   :     0.0783231 α      lambda       -0.1043021E-02
   maximum displ.:     0.0587787 α      in ANC's #3, #5, #8, ...

........................................................................
.............................. CYCLE    7 ..............................
........................................................................
   1    -11.0787736 -0.110788E+02  0.424E-01    3.15       0.0  T
   2    -11.0787879 -0.143088E-04  0.228E-01    3.14       1.0  T
   3    -11.0787913 -0.341472E-05  0.253E-02    3.14       1.8  T
   4    -11.0787890  0.236179E-05  0.246E-02    3.14       1.8  T
   5    -11.0787919 -0.293208E-05  0.139E-02    3.14       3.2  T
   6    -11.0787930 -0.105868E-05  0.971E-04    3.14      46.1  T
   7    -11.0787929  0.645245E-08  0.111E-03    3.14      40.4  T
   8    -11.0787930 -0.749565E-08  0.235E-04    3.14     190.2  T
   9    -11.0787930 -0.183977E-09  0.391E-05    3.14    1143.1  T
     SCC iter.                  ...        0 min,  0.001 sec
     gradient                   ...        0 min,  0.001 sec
 * total energy  :   -10.9233586 Eh     change       -0.7290919E-03 Eh
   gradient norm :     0.0125556 Eh/α   predicted    -0.5247099E-03 ( -28.03%)
   displ. norm   :     0.0466768 α      lambda       -0.4765970E-03
   maximum displ.:     0.0406885 α      in ANC's #5, #8, #3, ...

........................................................................
.............................. CYCLE    8 ..............................
........................................................................
   1    -11.0793124 -0.110793E+02  0.266E-01    2.98       0.0  T
   2    -11.0793235 -0.110950E-04  0.153E-01    2.99       1.0  T
   3    -11.0793223  0.117612E-05  0.290E-02    2.99       1.5  T
   4    -11.0793192  0.311967E-05  0.293E-02    2.99       1.5  T
   5    -11.0793258 -0.658794E-05  0.748E-03    2.99       6.0  T
   6    -11.0793259 -0.116955E-06  0.106E-03    2.99      42.2  T
   7    -11.0793259  0.500942E-09  0.958E-04    2.99      46.7  T
   8    -11.0793259 -0.479933E-08  0.147E-04    2.99     303.8  T
     SCC iter.                  ...        0 min,  0.001 sec
     gradient                   ...        0 min,  0.001 sec
 * total energy  :   -10.9236425 Eh     change       -0.2838830E-03 Eh
   gradient norm :     0.0030392 Eh/α   predicted    -0.2388176E-03 ( -15.87%)
   displ. norm   :     0.0101258 α      lambda       -0.3041518E-04
   maximum displ.:     0.0088337 α      in ANC's #5, #8, #3, ...

........................................................................
.............................. CYCLE    9 ..............................
........................................................................
   1    -11.0795800 -0.110796E+02  0.522E-02    2.95       0.0  T
   2    -11.0795820 -0.205005E-05  0.307E-02    2.96       1.5  T
   3    -11.0795820 -0.592687E-08  0.139E-02    2.95       3.2  T
   4    -11.0795804  0.165749E-05  0.152E-02    2.95       2.9  T
   5    -11.0795823 -0.189118E-05  0.150E-03    2.95      29.9  T
   6    -11.0795823  0.338544E-08  0.789E-04    2.95      56.7  T
   7    -11.0795823 -0.439265E-08  0.108E-04    2.95     414.8  T
     SCC iter.                  ...        0 min,  0.001 sec
     gradient                   ...        0 min,  0.001 sec
 * total energy  :   -10.9236586 Eh     change       -0.1602486E-04 Eh
   gradient norm :     0.0002352 Eh/α   predicted    -0.1520777E-04 (  -5.10%)
   displ. norm   :     0.0021441 α      lambda       -0.2685705E-06
   maximum displ.:     0.0021352 α      in ANC's #3, #7, #1, ...

........................................................................
.............................. CYCLE   10 ..............................
........................................................................
   1    -11.0796281 -0.110796E+02  0.988E-03    2.95       0.0  T
   2    -11.0796281 -0.626923E-07  0.480E-03    2.95       9.3  T
   3    -11.0796280  0.109282E-06  0.454E-03    2.95       9.8  T
   4    -11.0796280 -0.231608E-07  0.374E-03    2.95      12.0  T
   5    -11.0796282 -0.107076E-06  0.338E-04    2.95     132.4  T
   6    -11.0796282  0.592344E-09  0.386E-04    2.95     116.0  T
     SCC iter.                  ...        0 min,  0.001 sec
     gradient                   ...        0 min,  0.001 sec
 * total energy  :   -10.9236587 Eh     change       -0.1647841E-06 Eh
   gradient norm :     0.0001405 Eh/α   predicted    -0.1361934E-06 ( -17.35%)
   displ. norm   :     0.0003530 α      lambda       -0.2587642E-07
   maximum displ.:     0.0002591 α      in ANC's #5, #7, #8, ...

   *** GEOMETRY OPTIMIZATION CONVERGED AFTER 10 ITERATIONS ***

------------------------------------------------------------------------
 total energy gain   :        -0.0466974 Eh      -29.3031 kcal/mol
 total RMSD          :         0.4426807 a0        0.2343 Å
 total power (kW/mol):       -12.2604125 (step)-3386.1809 (real)
------------------------------------------------------------------------

 ANCopt (total)                0 d,  0 h,  0 min,  0.036 sec
 optimizer setup                ...        0 min,  0.000 sec (  0.163%)
 model hessian                  ...        0 min,  0.000 sec (  0.227%)
 ANC generation                 ...        0 min,  0.000 sec (  0.130%)
 coordinate transformation      ...        0 min,  0.000 sec (  0.053%)
 single point calculation       ...        0 min,  0.035 sec ( 97.342%)
 optimization log               ...        0 min,  0.000 sec (  0.612%)
 hessian update                 ...        0 min,  0.000 sec (  0.053%)
 rational function              ...        0 min,  0.000 sec (  0.588%)

================
 final structure:
================
5
 xtb: 6.2.2 (9d81278992624c895f80dd42a50cac0aa55982e2)
C        -1.34382308920619    0.53995300124774   -0.00899446303781
N         0.05741634279286    0.08633665926881   -0.31469466759903
C         1.31491124404139   -0.58317920321785    0.16648591871283
C        -1.22088691872386   -0.70531019919197   -0.32987508586138
C         1.19238242109579    0.66219874189327    0.48707829778539

 Bond Distances (Angstroems)
 ---------------------------
C1-N2=1.5042         C1-C4=1.2918         N2-C1=1.5042         N2-C3=1.5037         N2-C4=1.5037         N2-C5=1.5042         
C3-N2=1.5037         C3-C5=1.2918         C4-C1=1.2918         C4-N2=1.5037         C5-N2=1.5042         C5-C3=1.2918         
 C  C  Rav=1.2918 sigma=0.0000  Rmin=1.2918  Rmax=1.2918     2
 N  C  Rav=1.5039 sigma=0.0003  Rmin=1.5037  Rmax=1.5042     4

 selected bond angles (degree)
 --------------------
C4-C1-N2= 64.54                C3-N2-C1=148.02                C4-N2-C1= 50.87                C4-N2-C3=118.67                
C5-N2-C1=118.63                C5-N2-C3= 50.87                C5-N2-C4=148.04                C5-C3-N2= 64.59                
N2-C4-C1= 64.59                C3-C5-N2= 64.55                

 selected dihedral angles (degree)
 ---------------------------------
C3-N2-C1-C4=277.78            C5-N2-C1-C4=216.68            C5-C3-N2-C1=277.87            C5-C3-N2-C4=216.71            
C1-C4-N2-C3=143.27            C1-C4-N2-C5= 82.12            C3-C5-N2-C1=143.30            C3-C5-N2-C4= 82.21            
           -------------------------------------------------
          |                Final Singlepoint                |
           -------------------------------------------------

          ...................................................
          :                      SETUP                      :
          :.................................................:
          :  # basis functions                  20          :
          :  # atomic orbitals                  20          :
          :  # shells                           10          :
          :  # electrons                        21          :
          :  max. iterations                   250          :
          :  Hamiltonian                  GFN2-xTB          :
          :  restarted?                      false          :
          :  GBSA solvation                  false          :
          :  PC potential                    false          :
          :  electronic temp.          300.0000000     K    :
          :  accuracy                    1.0000000          :
          :  -> integral cutoff          0.2500000E+02      :
          :  -> integral neglect         0.1000000E-07      :
          :  -> SCF convergence          0.1000000E-05 Eh   :
          :  -> wf. convergence          0.1000000E-03 e    :
          :  Broyden damping             0.4000000          :
          ...................................................

 iter      E             dE          RMSdq      gap      omega  full diag
   1    -11.0796282 -0.110796E+02  0.113E-04    2.95       0.0  T
   2    -11.0796282  0.161648E-12  0.621E-05    2.95     719.9  T
   3    -11.0796282  0.257856E-10  0.691E-05    2.95     647.3  T

   *** convergence criteria satisfied after 3 iterations ***

         #    Occupation            Energy/Eh            Energy/eV
      -------------------------------------------------------------
         1        2.0000           -0.7421068             -20.1938
       ...           ...                  ...                  ...
         6        2.0000           -0.5526478             -15.0383
         7        2.0000           -0.5295565             -14.4100
         8        2.0000           -0.4790934             -13.0368
         9        2.0000           -0.4621429             -12.5755
        10        1.0000           -0.4234264             -11.5220
        11        1.0000           -0.4130042             -11.2384
        12        1.0000           -0.3880265             -10.5587 (HOMO)
        13                         -0.2795315              -7.6064 (LUMO)
        14                         -0.2658490              -7.2341
        15                         -0.2352926              -6.4026
        16                         -0.1639007              -4.4600
        17                         -0.0340993              -0.9279
       ...                                ...                  ...
        20                          0.5991732              16.3043
      -------------------------------------------------------------
                  HL-Gap            0.1084950 Eh            2.9523 eV
             Fermi-level           -0.3882818 Eh          -10.5657 eV

 SCC (total)                   0 d,  0 h,  0 min,  0.003 sec
 SCC setup                      ...        0 min,  0.000 sec (  1.205%)
 Dispersion                     ...        0 min,  0.000 sec (  0.199%)
 integral evaluation            ...        0 min,  0.001 sec ( 33.861%)
 zeroth order Hamiltonian       ...        0 min,  0.000 sec (  0.377%)
 iterations                     ...        0 min,  0.001 sec ( 15.790%)
 molecular gradient             ...        0 min,  0.002 sec ( 46.494%)
 printout                       ...        0 min,  0.000 sec (  1.842%)

         :::::::::::::::::::::::::::::::::::::::::::::::::::::
         ::                     SUMMARY                     ::
         :::::::::::::::::::::::::::::::::::::::::::::::::::::
         :: total energy             -10.923658719213 Eh    ::
         :: gradient norm              0.000141391057 Eh/a0 ::
         :: HOMO-LUMO gap              2.952298212723 eV    ::
         ::.................................................::
         :: SCC energy               -11.079628156731 Eh    ::
         :: -> isotropic ES           -0.011368052126 Eh    ::
         :: -> anisotropic ES          0.002490059657 Eh    ::
         :: -> anisotropic XC          0.005985208308 Eh    ::
         :: -> dispersion             -0.002969635353 Eh    ::
         :: repulsion energy           0.155969397946 Eh    ::
         :: add. restraining           0.000000000000 Eh    ::
         :::::::::::::::::::::::::::::::::::::::::::::::::::::

           ------------------------------------------------- 
          |                Numerical Hessian                |
           ------------------------------------------------- 
step length          :   0.00500
SCC accuracy         :   0.30000
Hessian scale factor :   1.00000
frozen atoms in %    :   0.00000    0
RMS gradient         :   0.00014
estimated CPU  time      0.00 min
estimated wall time      0.00 min

writing file <hessian>.

 projected vibrational frequencies (cm-1)
eigval :       -0.00    -0.00     0.00     0.00     0.00     0.00
eigval :     -528.91  -349.23  -130.85   296.64   367.59   780.52
eigval :      792.63  1777.38  1777.96
           -------------------------------------------------
          |                Property Printout                |
           -------------------------------------------------

    * Orbital Energies and Occupations

         #    Occupation            Energy/Eh            Energy/eV
      -------------------------------------------------------------
         1        2.0000           -0.7421068             -20.1938
         2        2.0000           -0.7336646             -19.9640
         3        2.0000           -0.6222418             -16.9321
         4        2.0000           -0.6115121             -16.6401
         5        2.0000           -0.5786767             -15.7466
         6        2.0000           -0.5526478             -15.0383
         7        2.0000           -0.5295565             -14.4100
         8        2.0000           -0.4790934             -13.0368
         9        2.0000           -0.4621429             -12.5755
        10        1.0000           -0.4234264             -11.5220
        11        1.0000           -0.4130042             -11.2384
        12        1.0000           -0.3880265             -10.5587 (HOMO)
        13                         -0.2795315              -7.6064 (LUMO)
        14                         -0.2658490              -7.2341
        15                         -0.2352926              -6.4026
        16                         -0.1639007              -4.4600
        17                         -0.0340993              -0.9279
        18                          0.0818122               2.2262
        19                          0.5577767              15.1779
        20                          0.5991732              16.3043
      -------------------------------------------------------------
Molecule has the following symmetry elements: (C2) 2*(sigma) 
It seems to be the C2v point group
                  HL-Gap            0.1084950 Eh            2.9523 eV
             Fermi-level           -0.3882818 Eh          -10.5657 eV

     #   Z        covCN         q      C6AA      α(0)
     1   6 C      1.885    -0.016    31.561     9.074
     2   7 N      3.613     0.065    20.096     6.658
     3   6 C      1.885    -0.016    31.555     9.073
     4   6 C      1.885    -0.016    31.555     9.073
     5   6 C      1.885    -0.016    31.560     9.073

 Mol. C6AA /au·bohr⁶  :        725.388288
 Mol. C8AA /au·bohr⁸  :      20107.803182
 Mol. α(0) /au        :         42.950321


Wiberg/Mayer (AO) data.
largest (>0.10) Wiberg bond orders for each atom
          total WBO             WBO to atom ...
     1  C   2.770        C    4 1.859    N    2 0.774
     2  N   3.097        C    4 0.775    C    3 0.775    C    5 0.774    C    1 0.774
     3  C   2.771        C    5 1.859    N    2 0.775
     4  C   2.771        C    1 1.859    N    2 0.775
     5  C   2.770        C    3 1.859    N    2 0.774

MOs/occ written to file <molden.input>


molecular dipole:
                 x           y           z       tot (Debye)
 q only:        0.009       0.013      -0.049
   full:        0.014       0.020      -0.078       0.207
molecular quadrupole (traceless):
                xx          xy          yy          xz          yz          zz
 q only:       -0.332      -0.012       0.098      -0.113      -0.049       0.234
  q+dip:       -4.299      -0.409       2.846      -1.188       0.269       1.453
   full:       -3.389      -0.065       0.628      -1.216      -0.716       2.761

           -------------------------------------------------
          |                Geometry Summary                 |
           -------------------------------------------------

      molecular mass/u    :       62.0496468
   center of mass at/Å    :        0.0018469       0.0027770      -0.0101229
  moments of inertia/u·Å² :        0.2190332E+02   0.8224175E+02   0.1004245E+03
rotational constants/cm⁻¹ :        0.7696383E+00   0.2049766E+00   0.1678638E+00

 * 2 selected distances

     #   Z        #   Z                                     value/Å
     1   6 C      4   6 C                                 1.2918042 (min)
     3   6 C      5   6 C                                 1.2918046 (max)

 * 1 distinct bonds (by element types)

   Z      Z             #   av. dist./Å        max./Å        min./Å
   6 C    6 C           2     1.2918044     1.2918046     1.2918042

           -------------------------------------------------
          |               Frequency Printout                |
           -------------------------------------------------
 projected vibrational frequencies (cm-1)
eigval :       -0.00    -0.00     0.00     0.00     0.00     0.00
eigval :     -528.91  -349.23  -130.85   296.64   367.59   780.52
eigval :      792.63  1777.38  1777.96
 reduced masses (amu)
   1: 12.26   2: 12.41   3: 12.27   4: 12.30   5: 12.31   6: 12.03   7: 13.11   8: 12.01
   9: 12.01  10: 12.32  11: 13.10  12: 12.47  13: 13.39  14: 12.01  15: 12.14
 IR intensities (amu)
   1:  0.04   2:  0.05   3:  0.06   4:  0.03   5:  0.04   6:  0.03   7:  1.83   8:  0.02
   9:  0.02  10:  0.21  11:  0.24  12:  0.15  13:  0.55  14:  0.04  15:  0.56
 Raman intensities (amu)
   1:  0.00   2:  0.00   3:  0.00   4:  0.00   5:  0.00   6:  0.00   7:  0.00   8:  0.00
   9:  0.00  10:  0.00  11:  0.00  12:  0.00  13:  0.00  14:  0.00  15:  0.00
 output can be read by thermo (or use thermo option).
 writing <g98.out> molden fake output.
 recommended (thermochemical) frequency scaling factor: 1.0
           -------------------------------------------------
          |             Thermodynamic Functions             |
           -------------------------------------------------

c2v symmetry found (for desy threshold:  0.10E+00) used in thermo

          ...................................................
          :                      SETUP                      :
          :.................................................:
          :  # frequencies                           6      :
          :  # imaginary freq.                       3      :
          :  linear?                             false      :
          :  only rotor calc.                    false      :
          :  symmetry                              c2v      :
          :  rotational number                       2      :
          :  scaling factor                  1.0000000      :
          :  rotor cutoff                   50.0000000 cm⁻¹ :
          :  imag. cutoff                  -20.0000000 cm⁻¹ :
          :.................................................:

    mode    ω/cm⁻¹     T·S(HO)/kcal·mol⁻¹    T·S(FR)/kcal·mol⁻¹   T·S(vib)
   ------------------------------------------------------------------------
       1    296.64    -0.00000 ( 99.92%)     0.01600 (  0.08%)     0.00001
   ------------------------------------------------------------------------

   temp. (K)  partition function   enthalpy   heat capacity  entropy
                                   cal/mol     cal/K/mol   cal/K/mol   J/K/mol
 298.15  VIB   1.66                  586.390      4.620      2.970
         ROT  0.162E+05              888.752      2.981     22.249
         INT  0.269E+05             1475.143      7.601     25.219
         TR   0.473E+27             1481.254      4.968     38.278
         TOT                        2956.3965    12.5695    63.4971   265.6718

   temp. (K)  partition function   enthalpy   heat capacity  entropy
                                   cal/mol     cal/K/mol   cal/K/mol   J/K/mol
 120.00  VIB   1.04                   38.242      1.271      0.402
         ROT  0.415E+04              357.707      2.981     19.536
         INT  0.432E+04              395.949      4.252     19.937
         TR   0.121E+27              596.178      4.968     33.759
         TOT                         992.1271     9.2197    53.6959   224.6637

   temp. (K)  partition function   enthalpy   heat capacity  entropy
                                   cal/mol     cal/K/mol   cal/K/mol   J/K/mol
 100.00  VIB   1.02                   17.439      0.811      0.213
         ROT  0.316E+04              298.089      2.981     18.992
         INT  0.322E+04              315.528      3.792     19.205
         TR   0.919E+26              496.815      4.968     32.853
         TOT                         812.3433     8.7604    52.0586   217.8132

   temp. (K)  partition function   enthalpy   heat capacity  entropy
                                   cal/mol     cal/K/mol   cal/K/mol   J/K/mol
  80.00  VIB   1.01                    5.527      0.393      0.082
         ROT  0.226E+04              238.471      2.981     18.327
         INT  0.227E+04              243.999      3.374     18.409
         TR   0.657E+26              397.452      4.968     31.745
         TOT                         641.4507     8.3421    50.1540   209.8445

   temp. (K)  partition function   enthalpy   heat capacity  entropy
                                   cal/mol     cal/K/mol   cal/K/mol   J/K/mol
  60.00  VIB   1.00                    0.847      0.105      0.016
         ROT  0.147E+04              178.853      2.981     17.469
         INT  0.147E+04              179.701      3.086     17.486
         TR   0.427E+26              298.089      4.968     30.317
         TOT                         477.7898     8.0540    47.8023   200.0049

   temp. (K)  partition function   enthalpy   heat capacity  entropy
                                   cal/mol     cal/K/mol   cal/K/mol   J/K/mol
  40.00  VIB   1.00                    0.022      0.006      0.000
         ROT   798.                  119.236      2.981     16.261
         INT   798.                  119.257      2.987     16.261
         TR   0.232E+26              198.726      4.968     28.303
         TOT                         317.9832     7.9549    44.5643   186.4571

   temp. (K)  partition function   enthalpy   heat capacity  entropy
                                   cal/mol     cal/K/mol   cal/K/mol   J/K/mol
  20.00  VIB   1.00                    0.000      0.000     -0.001
         ROT   282.                   59.618      2.981     14.195
         INT   282.                   59.618      2.981     14.193
         TR   0.822E+25               99.363      4.968     24.861
         TOT                         158.9808     7.9490    39.0547   163.4051

   temp. (K)  partition function   enthalpy   heat capacity  entropy
                                   cal/mol     cal/K/mol   cal/K/mol   J/K/mol
  10.00  VIB   1.00                    0.000      0.000     -0.002
         ROT   99.8                   29.809      2.981     12.128
         INT   99.8                   29.809      2.981     12.126
         TR   0.290E+25               49.681      4.968     21.419
         TOT                          79.4904     7.9490    33.5458   140.3555

       T/K    H(0)-H(T)+PV         H(T)/Eh          T*S/Eh         G(T)/Eh
   ------------------------------------------------------------------------
    298.15    0.471132E-02    0.179081E-01    0.301695E-01   -0.122614E-01
    120.00    0.158106E-02    0.147778E-01    0.102684E-01    0.450943E-02
    100.00    0.129455E-02    0.144913E-01    0.829607E-02    0.619525E-02
     80.00    0.102222E-02    0.142190E-01    0.639404E-02    0.782494E-02
     60.00    0.761406E-03    0.139582E-01    0.457067E-02    0.938750E-02
     40.00    0.506739E-03    0.137035E-01    0.284071E-02    0.108628E-01
     20.00    0.253352E-03    0.134501E-01    0.124475E-02    0.122054E-01
     10.00    0.126676E-03    0.133234E-01    0.534586E-03    0.127889E-01 (used)
   ------------------------------------------------------------------------

         :::::::::::::::::::::::::::::::::::::::::::::::::::::
         ::                  THERMODYNAMIC                  ::
         :::::::::::::::::::::::::::::::::::::::::::::::::::::
         :: total free energy         -10.910869864052 Eh   ::
         ::.................................................::
         :: total energy              -10.923658719227 Eh   ::
         :: zero point energy           0.013196764846 Eh   ::
         :: G(RRHO) w/o ZPVE           -0.000407909670 Eh   ::
         :: G(RRHO) contrib.            0.012788855175 Eh   ::
         :::::::::::::::::::::::::::::::::::::::::::::::::::::
imag cut-off (cm-1) :    5.00
 found            3  significant imaginary frequencies
 writing imag mode distorted coords to xtbhess.xyz
 for further optimization.

optimized geometry written to: xtbopt.xyz


           -------------------------------------------------
          | TOTAL ENERGY              -10.923658719227 Eh   |
          | TOTAL ENTHALPY            -10.910335278366 Eh   |
          | TOTAL FREE ENERGY         -10.910869864052 Eh   |
          | GRADIENT NORM               0.000141822215 Eh/α |
          | HOMO-LUMO GAP               2.952298508542 eV   |
           -------------------------------------------------

------------------------------------------------------------------------
 * finished run on 2020/05/12 at 11:44:11.284     
------------------------------------------------------------------------
 total:
 * wall-time:     0 d,  0 h,  0 min,  0.169 sec
 *  cpu-time:     0 d,  0 h,  0 min,  0.169 sec
 * ratio c/w:     0.995 speedup
 SCF:
 * wall-time:     0 d,  0 h,  0 min,  0.005 sec
 *  cpu-time:     0 d,  0 h,  0 min,  0.005 sec
 * ratio c/w:     1.000 speedup
 ANC optimizer:
 * wall-time:     0 d,  0 h,  0 min,  0.040 sec
 *  cpu-time:     0 d,  0 h,  0 min,  0.040 sec
 * ratio c/w:     0.999 speedup
 numerical hessian:
 * wall-time:     0 d,  0 h,  0 min,  0.104 sec
 *  cpu-time:     0 d,  0 h,  0 min,  0.104 sec
 * ratio c/w:     0.999 speedup

