5
 energy: -9.970102284761 gnorm: 0.000148001803 xtb: 6.2.2 (9d81278992624c895f80dd42a50cac0aa55982e2)
C        -0.76153223991457   -0.77373728190344   -0.85760204413188
C        -0.00002180816294    0.00001193759631    0.00001996826651
C         0.44487059130550   -0.77991896911419    1.05257779320552
C        -0.77012807195809    1.03981702411441    0.48974232290227
C         1.08681152873533    0.51382828930691   -0.68473804024417
