5
 energy: -11.099825487190 gnorm: 0.168215486532 xtb: 6.2.2 (9d81278992624c895f80dd42a50cac0aa55982e2)
C        -0.00638700000000   -0.06495100000000    0.00751800000000
O         1.19981300000000    0.60928300000000   -0.17494200000000
O        -1.05610300000000    0.85205400000000    0.00579600000000
H         0.01350700000000   -0.60244800000000    0.97781300000000
H        -0.15083000000000   -0.79393700000000   -0.81618500000000
5
 energy: -11.124764113143 gnorm: 0.111771394602 xtb: 6.2.2 (9d81278992624c895f80dd42a50cac0aa55982e2)
C         0.00169177173678    0.01719949245428   -0.00199066766981
O         1.22340184876884    0.53719198554924   -0.16940789259724
O        -1.09322811786494    0.78649638327363    0.01619432988543
H         0.01257588151378   -0.57896353139098    0.93464749744743
H        -0.14444138415446   -0.76192332988617   -0.77944326706581
5
 energy: -11.139169397299 gnorm: 0.041334110937 xtb: 6.2.2 (9d81278992624c895f80dd42a50cac0aa55982e2)
C         0.01166348708271    0.11860094381130   -0.01372755404371
O         1.18849405481920    0.50019017006792   -0.16226063455862
O        -1.06625254287211    0.74283470219802    0.01838360628025
H         0.00605172744673   -0.59574643242098    0.87575786175579
H        -0.13995672647653   -0.76587838365627   -0.71815327943371
5
 energy: -11.147926346689 gnorm: 0.034207735157 xtb: 6.2.2 (9d81278992624c895f80dd42a50cac0aa55982e2)
C         0.01909528776736    0.19417383169268   -0.02247487444982
O         1.20762687792727    0.51427665490946   -0.16551684800352
O        -1.08224325677733    0.76070141104036    0.01794131513149
H        -0.00604057776938   -0.65743925622649    0.80768936768690
H        -0.13843833114793   -0.81171164141601   -0.63763896036505
5
 energy: -11.163635493433 gnorm: 0.059123396486 xtb: 6.2.2 (9d81278992624c895f80dd42a50cac0aa55982e2)
C         0.02708100016219    0.27538095303716   -0.03187438529339
O         1.20298732405285    0.54024738399794   -0.16786388900152
O        -1.07264622184886    0.78514011790026    0.01445365429521
H        -0.02148424808839   -0.73370196225141    0.71736195125259
H        -0.13593785427779   -0.86706549268395   -0.53207733125289
5
 energy: -11.202586234383 gnorm: 0.091605628130 xtb: 6.2.2 (9d81278992624c895f80dd42a50cac0aa55982e2)
C         0.03969673925163    0.40367206871970   -0.04672370631220
O         1.20143229131907    0.56918993018661   -0.17081069886275
O        -1.06549043172698    0.81314508968963    0.01080896566860
H        -0.04391942250982   -0.84185006670064    0.58259780281744
H        -0.13171917633391   -0.94415602189530   -0.37587236331109
5
 energy: -11.226233293304 gnorm: 0.191792937354 xtb: 6.2.2 (9d81278992624c895f80dd42a50cac0aa55982e2)
C         0.05552952794740    0.56465712884180   -0.06535741189383
O         1.20017909876091    0.60239945939848   -0.17424062870926
O        -1.05780103991065    0.84539286924244    0.00666251202938
H        -0.06962929419143   -0.97205477116766    0.43658951945258
H        -0.12827829260623   -1.04039368631507   -0.20365399087888
5
 energy: -11.248765923629 gnorm: 0.069511368289 xtb: 6.2.2 (9d81278992624c895f80dd42a50cac0aa55982e2)
C         0.05808492631241    0.59063669888384   -0.06836461544510
O         1.19727970451540    0.62419166992183   -0.17630100004874
O        -1.05072149491297    0.86611145662583    0.00380255145431
H        -0.06660787866248   -0.99885512074999    0.51030078634974
H        -0.13803525725236   -1.08208370468151   -0.26943772231022
5
 energy: -11.268928323173 gnorm: 0.048345097671 xtb: 6.2.2 (9d81278992624c895f80dd42a50cac0aa55982e2)
C         0.07200345555136    0.73218735461181   -0.08474862614196
O         1.22314324565919    0.66109519751318   -0.18260914110875
O        -1.06886050886210    0.90775076834455    0.00101963873894
H        -0.07721950644642   -1.10865729851051    0.52532900055311
H        -0.14906668590203   -1.19237502195903   -0.25899087204133
5
 energy: -11.278839222340 gnorm: 0.107668934016 xtb: 6.2.2 (9d81278992624c895f80dd42a50cac0aa55982e2)
C         0.08687050844208    0.88334638205575   -0.10224505361197
O         1.19030824396460    0.74981280325237   -0.18907089680526
O        -1.01944702606904    0.98761657892094   -0.01203164084466
H        -0.09359026782382   -1.26928360336094    0.53675942982691
H        -0.16414145851383   -1.35149116086812   -0.23341183856502
5
 energy: -11.284752761853 gnorm: 0.026575898180 xtb: 6.2.2 (9d81278992624c895f80dd42a50cac0aa55982e2)
C         0.09564537416102    0.97256926045778   -0.11257238407965
O         1.22314875389893    0.77512761107318   -0.19478129312300
O        -1.04667318046127    1.01939564221670   -0.01292972978022
H        -0.10093196238760   -1.34261343456824    0.54362133612401
H        -0.17118898521107   -1.42447807917942   -0.22333792914114
5
 energy: -11.286709349738 gnorm: 0.018561589550 xtb: 6.2.2 (9d81278992624c895f80dd42a50cac0aa55982e2)
C         0.09728165966830    0.98924988207064   -0.11450273040934
O         1.22443460432029    0.81053173113436   -0.19867808734240
O        -1.04104135058902    1.05433431078748   -0.01717496124971
H        -0.10503037394741   -1.38591708401544    0.55060686155895
H        -0.17564453945216   -1.46819783997704   -0.22025108255749
5
 energy: -11.289745799051 gnorm: 0.006960844981 xtb: 6.2.2 (9d81278992624c895f80dd42a50cac0aa55982e2)
C         0.10160396980328    1.03301847699546   -0.11957046929892
O         1.23368000669522    0.90472641962907   -0.20957925753766
O        -1.03176202079409    1.14851585926795   -0.02807785372153
H        -0.11622867417082   -1.50172710706625    0.56650132481438
H        -0.18729328153360   -1.58453264882623   -0.20927374425626
5
 energy: -11.290667111413 gnorm: 0.003227792720 xtb: 6.2.2 (9d81278992624c895f80dd42a50cac0aa55982e2)
C         0.10635751240585    1.08185778563937   -0.12521896945833
O         1.24097749103743    0.96926060886072   -0.21713604423899
O        -1.02634036770888    1.21327421979207   -0.03548674895102
H        -0.12511772014285   -1.59097099159936    0.57514130084776
H        -0.19587691559155   -1.67342062269280   -0.19729953819942
5
 energy: -11.291136146880 gnorm: 0.002591472804 xtb: 6.2.2 (9d81278992624c895f80dd42a50cac0aa55982e2)
C         0.11225524799473    1.14051277260640   -0.13202000219453
O         1.24678219755527    1.02800612927350   -0.22393819810333
O        -1.02060848664690    1.27197123730727   -0.04227707646529
H        -0.13404103120217   -1.67925997939090    0.58308746005883
H        -0.20438792770093   -1.76122915979627   -0.18485218329568
5
 energy: -11.291366394382 gnorm: 0.002731405319 xtb: 6.2.2 (9d81278992624c895f80dd42a50cac0aa55982e2)
C         0.11763317566068    1.19903752879275   -0.13875952203978
O         1.25202187192242    1.08187587921013   -0.23016815184041
O        -1.01520100560557    1.32598739825936   -0.04853806110519
H        -0.14211111895870   -1.76253238921131    0.59207426500020
H        -0.21234292301883   -1.84436741705093   -0.17460853001481
5
 energy: -11.291464152671 gnorm: 0.004401300965 xtb: 6.2.2 (9d81278992624c895f80dd42a50cac0aa55982e2)
C         0.12378960223816    1.25071089018339   -0.14483903566150
O         1.25675126667549    1.13089168711894   -0.23583326246176
O        -1.01043740301754    1.37452333641556   -0.05415511796950
H        -0.14987826385361   -1.83707789368770    0.60138331898574
H        -0.22022520204251   -1.91904702003019   -0.16655590289298
5
 energy: -11.291493101024 gnorm: 0.008059834992 xtb: 6.2.2 (9d81278992624c895f80dd42a50cac0aa55982e2)
C         0.12607337705911    1.29726086200413   -0.15001694727851
O         1.26115716294473    1.17533971390118   -0.24098117849728
O        -1.00579630921654    1.41997254772951   -0.05943147873971
H        -0.15547039403103   -1.90521617719986    0.60998385194214
H        -0.22596383675627   -1.98735594643495   -0.15955424742664
5
 energy: -11.291507821060 gnorm: 0.000491831068 xtb: 6.2.2 (9d81278992624c895f80dd42a50cac0aa55982e2)
C         0.12946968807338    1.31620597536636   -0.15235024077573
O         1.26299356433891    1.19512605676020   -0.24326137352654
O        -1.00394349427732    1.43906655091020   -0.06163928992563
H        -0.15899446559504   -1.93410714408991    0.61359848505138
H        -0.22952529253995   -2.01629043894684   -0.15634758082347
5
 energy: -11.291508900762 gnorm: 0.000381411282 xtb: 6.2.2 (9d81278992624c895f80dd42a50cac0aa55982e2)
C         0.13060335982434    1.32744119998824   -0.15365332168022
O         1.26412893848514    1.20682201242633   -0.24461379473918
O        -1.00278230738508    1.45074643220063   -0.06299236724050
H        -0.16072512736573   -1.95143080216299    0.61543303328106
H        -0.23122486355867   -2.03357784245219   -0.15417354962115
