      -----------------------------------------------------------      
     |                   =====================                   |     
     |                           x T B                           |     
     |                   =====================                   |     
     |                         S. Grimme                         |     
     |          Mulliken Center for Theoretical Chemistry        |     
     |                    University of Bonn                     |     
      -----------------------------------------------------------      

   * xtb version 6.2.2 (9d81278992624c895f80dd42a50cac0aa55982e2) compiled by '@Darwin' on 04/03/2020

   xtb is free software: you can redistribute it and/or modify it under
   the terms of the GNU Lesser General Public License as published by
   the Free Software Foundation, either version 3 of the License, or
   (at your option) any later version.
   
   xtb is distributed in the hope that it will be useful,
   but WITHOUT ANY WARRANTY; without even the implied warranty of
   MERCHANTABILITY or FITNESS FOR A PARTICULAR PURPOSE.  See the
   GNU Lesser General Public License for more details.
   
   Cite this work as:
   * S. Grimme, C. Bannwarth, P. Shushkov, J. Chem. Theory Comput., 2017,
     13, 1989-2009. DOI: 10.1021/acs.jctc.7b00118
   * C. Bannwarth, S. Ehlert and S. Grimme., J. Chem. Theory Comput., 2019,
     15, 1652-1671. DOI: 10.1021/acs.jctc.8b01176
   * P. Pracht, E. Caldeweyher, S. Ehlert, S. Grimme, ChemRxiv, 2019, preprint.
     DOI: 10.26434/chemrxiv.8326202.v1
   
   for DFT-D4:
   * E. Caldeweyher, C. Bannwarth and S. Grimme, J. Chem. Phys., 2017,
     147, 034112. DOI: 10.1063/1.4993215
   * E. Caldeweyher, S. Ehlert, A. Hansen, H. Neugebauer, S. Spicher,
     C. Bannwarth and S. Grimme, J. Chem. Phys., 2019, 150, 154122.
     DOI: 10.1063/1.5090222
   
   for sTDA-xTB:
   * S. Grimme and C. Bannwarth, J. Chem. Phys., 2016, 145, 054103.
     DOI: 10.1063/1.4959605
   
   in the mass-spec context:
   * V. Asgeirsson, C. Bauer and S. Grimme, Chem. Sci., 2017, 8, 4879.
     DOI: 10.1039/c7sc00601b
   
   for metadynamics refer to:
   * S. Grimme, J. Chem. Theory Comput., 2019, 155, 2847-2862
     DOI: 10.1021/acs.jctc.9b00143
   
   with help from (in alphabetical order)
   C. Bannwarth, F. Bohle, G. Brandenburg, E. Caldeweyher, M. Checinski,
   S. Dohm, S. Ehlert, S. Ehrlich, F. März, H. Neugebauer, J. Pisarek,
   P. Pracht, P. Shushkov, and S. Spicher.
   
 * started run on 2020/05/12 at 11:43:51.893     

           -------------------------------------------------
          |                Calculation Setup                |
           -------------------------------------------------

          program call               : xtb --input H2C1O2_0_S_0.input H2C1O2_0_S_0.xyz --ohess --molden --namespace H2C1O2_0_S_0 output.out
          calculation namespace      : H2C1O2_0_S_0
          coordinate file            : H2C1O2_0_S_0.xyz
          number of atoms            :                     5
          number of electrons        :                    18
          charge                     :                     0
          spin                       :                   0.0
          first test random number   :      0.45292572597186

   ID    Z sym.   atoms
    1    6 C      1
    2    8 O      2, 3
    3    1 H      4, 5

           -------------------------------------------------
          |                 G F N 2 - x T B                 |
           -------------------------------------------------

        Reference                      10.1021/acs.jctc.8b01176
      * Hamiltonian:
        H0-scaling (s, p, d)           1.850000    2.230000    2.230000
        zeta-weighting                 0.500000
      * Dispersion:
        s8                             2.700000
        a1                             0.520000
        a2                             5.000000
        s9                             5.000000
      * Repulsion:
        kExp                           1.500000    1.000000
        rExp                           1.000000
      * Coulomb:
        alpha                          2.000000
        third order                    shell-resolved
        anisotropic                    true
        a3                             3.000000
        a5                             4.000000
        cn-shift                       1.200000
        cn-exp                         4.000000
        max-rad                        5.000000


          ...................................................
          :                      SETUP                      :
          :.................................................:
          :  # basis functions                  14          :
          :  # atomic orbitals                  14          :
          :  # shells                            8          :
          :  # electrons                        18          :
          :  max. iterations                   250          :
          :  Hamiltonian                  GFN2-xTB          :
          :  restarted?                      false          :
          :  GBSA solvation                  false          :
          :  PC potential                    false          :
          :  electronic temp.          300.0000000     K    :
          :  accuracy                    1.0000000          :
          :  -> integral cutoff          0.2500000E+02      :
          :  -> integral neglect         0.1000000E-07      :
          :  -> SCF convergence          0.1000000E-05 Eh   :
          :  -> wf. convergence          0.1000000E-03 e    :
          :  Broyden damping             0.4000000          :
          ...................................................

 iter      E             dE          RMSdq      gap      omega  full diag
   1    -11.1091427 -0.111091E+02  0.497E+00    0.96       0.0  T
   2    -11.1399439 -0.308012E-01  0.281E+00    0.44       1.0  T
   3    -11.1442882 -0.434423E-02  0.158E+00    0.55       1.0  T
   4    -11.1452002 -0.912080E-03  0.251E-01    0.51       1.0  T
   5    -11.1452484 -0.481872E-04  0.871E-02    0.54       1.0  T
   6    -11.1450873  0.161085E-03  0.187E-01    0.54       1.0  T
   7    -11.1452506 -0.163295E-03  0.234E-02    0.54       1.9  T
   8    -11.1452512 -0.555204E-06  0.222E-03    0.54      20.1  T
   9    -11.1452512 -0.840128E-09  0.321E-04    0.54     139.4  T
  10    -11.1452512 -0.457518E-10  0.382E-05    0.54    1170.4  T

   *** convergence criteria satisfied after 10 iterations ***

         #    Occupation            Energy/Eh            Energy/eV
      -------------------------------------------------------------
         1        2.0000           -0.7360109             -20.0279
       ...           ...                  ...                  ...
         3        2.0000           -0.6555119             -17.8374
         4        2.0000           -0.6094488             -16.5839
         5        2.0000           -0.5872886             -15.9809
         6        2.0000           -0.5686290             -15.4732
         7        2.0000           -0.4713776             -12.8268
         8        2.0000           -0.4663410             -12.6898
         9        1.9999           -0.4532528             -12.3336 (HOMO)
        10        0.0001           -0.4334247             -11.7941 (LUMO)
        11                          0.0631571               1.7186
        12                          0.0778140               2.1174
        13                          0.0907417               2.4692
        14                          0.1209516               3.2913
      -------------------------------------------------------------
                  HL-Gap            0.0198281 Eh            0.5396 eV
             Fermi-level           -0.4433388 Eh          -12.0639 eV

 SCC (total)                   0 d,  0 h,  0 min,  0.002 sec
 SCC setup                      ...        0 min,  0.000 sec (  2.839%)
 Dispersion                     ...        0 min,  0.000 sec (  0.352%)
 integral evaluation            ...        0 min,  0.001 sec ( 24.624%)
 zeroth order Hamiltonian       ...        0 min,  0.000 sec (  0.491%)
 iterations                     ...        0 min,  0.001 sec ( 36.888%)
 molecular gradient             ...        0 min,  0.001 sec ( 31.188%)
 printout                       ...        0 min,  0.000 sec (  3.266%)

         :::::::::::::::::::::::::::::::::::::::::::::::::::::
         ::                     SUMMARY                     ::
         :::::::::::::::::::::::::::::::::::::::::::::::::::::
         :: total energy             -11.099825487191 Eh    ::
         :: gradient norm              0.168215565339 Eh/a0 ::
         :: HOMO-LUMO gap              0.539551261926 eV    ::
         ::.................................................::
         :: SCC energy               -11.145251187102 Eh    ::
         :: -> isotropic ES            0.054936087014 Eh    ::
         :: -> anisotropic ES          0.002080048988 Eh    ::
         :: -> anisotropic XC         -0.001510129268 Eh    ::
         :: -> dispersion             -0.001085862037 Eh    ::
         :: repulsion energy           0.045425669203 Eh    ::
         :: add. restraining           0.000000000000 Eh    ::
         :::::::::::::::::::::::::::::::::::::::::::::::::::::

      ----------------------------------------------------------- 
     |                   =====================                   |
     |                        A N C O P T                        |
     |                   =====================                   |
     |               Approximate Normal Coordinate               |
     |                Rational Function Optimizer                |
      ----------------------------------------------------------- 

          ...................................................
          :                      SETUP                      :
          :.................................................:
          :   optimization level            normal          :
          :   max. optcycles                   200          :
          :   ANC micro-cycles                  20          :
          :   degrees of freedom                 9          :
          :.................................................:
          :   RF solver                   davidson          :
          :   write xtbopt.log                true          :
          :   linear?                        false          :
          :   energy convergence         0.5000000E-05 Eh   :
          :   grad. convergence          0.1000000E-02 Eh/α :
          :   maximium RF displ.         1.0000000          :
          :   Hlow (freq-cutoff)         0.1000000E-01      :
          :   Hmax (freq-cutoff)         5.0000000          :
          :   S6 in model hess.         20.0000000          :
          ...................................................

generating ANC from model Hessian ...
Using Lindh-Hessian (1995)
 Shifting diagonal of input Hessian by    0.0000000000000000     
 Lowest  eigenvalues of input Hessian
   -0.000000   -0.000000   -0.000000   -0.000000    0.000000    0.000000
    0.102590    0.111650    0.128623    0.157781    0.161806    0.492272
    1.050688    1.293033    1.481054
 Highest eigenvalues
    0.157781    0.161806    0.492272    1.050688    1.293033    1.481054


........................................................................
.............................. CYCLE    1 ..............................
........................................................................
   1    -11.1452512 -0.111453E+02  0.886E-07    0.54       0.0  T
   2    -11.1452512  0.710543E-14  0.846E-07    0.54   52833.9  T
   3    -11.1452512  0.142109E-13  0.141E-06    0.54   31688.4  T
     SCC iter.                  ...        0 min,  0.000 sec
     gradient                   ...        0 min,  0.001 sec
 * total energy  :   -11.0998255 Eh     change        0.1296740E-12 Eh
   gradient norm :     0.1682155 Eh/α   predicted     0.0000000E+00 (-100.00%)
   displ. norm   :     0.2884792 α      lambda       -0.3358363E-01
   maximum displ.:     0.2485302 α      in ANC's #4, #8, #6, ...

........................................................................
.............................. CYCLE    2 ..............................
........................................................................
   1    -11.1783746 -0.111784E+02  0.136E+00    0.99       0.0  T
   2    -11.1794898 -0.111521E-02  0.790E-01    0.95       1.0  T
   3    -11.1795391 -0.493129E-04  0.393E-01    0.97       1.0  T
   4    -11.1796181 -0.789557E-04  0.180E-02    0.97       2.5  T
   5    -11.1796181 -0.180355E-07  0.311E-03    0.97      14.4  T
   6    -11.1796181  0.748738E-08  0.192E-03    0.97      23.3  T
   7    -11.1796181  0.342505E-08  0.193E-03    0.97      23.2  T
   8    -11.1796181 -0.135235E-07  0.527E-05    0.96     849.2  T
   9    -11.1796181 -0.282441E-11  0.120E-05    0.96    3713.2  T
     SCC iter.                  ...        0 min,  0.001 sec
     gradient                   ...        0 min,  0.001 sec
 * total energy  :   -11.1247641 Eh     change       -0.2493863E-01 Eh
   gradient norm :     0.1117714 Eh/α   predicted    -0.1818922E-01 ( -27.06%)
   displ. norm   :     0.2889580 α      lambda       -0.2662958E-01
   maximum displ.:     0.1977555 α      in ANC's #8, #6, #4, ...

........................................................................
.............................. CYCLE    3 ..............................
........................................................................
   1    -11.2131849 -0.112132E+02  0.172E+00    1.37       0.0  T
   2    -11.2167353 -0.355036E-02  0.768E-01    1.30       1.0  T
   3    -11.2168873 -0.151995E-03  0.442E-01    1.31       1.0  T
   4    -11.2169243 -0.370064E-04  0.401E-02    1.31       1.1  T
   5    -11.2169244 -0.893666E-07  0.390E-03    1.31      11.5  T
   6    -11.2169244 -0.163166E-07  0.137E-03    1.31      32.6  T
   7    -11.2169244  0.555884E-08  0.139E-03    1.31      32.3  T
   8    -11.2169244 -0.698299E-08  0.958E-05    1.31     467.0  T
   9    -11.2169244 -0.118874E-10  0.126E-05    1.31    3541.4  T
     SCC iter.                  ...        0 min,  0.000 sec
     gradient                   ...        0 min,  0.001 sec
 * total energy  :   -11.1391694 Eh     change       -0.1440528E-01 Eh
   gradient norm :     0.0413341 Eh/α   predicted    -0.1442654E-01 (   0.15%)
   displ. norm   :     0.2937556 α      lambda       -0.8815742E-02
   maximum displ.:     0.2528129 α      in ANC's #1, #4, #8, ...

........................................................................
.............................. CYCLE    4 ..............................
........................................................................
   1    -11.2216975 -0.112217E+02  0.945E-01    1.81       0.0  T
   2    -11.2220700 -0.372447E-03  0.487E-01    1.79       1.0  T
   3    -11.2220801 -0.101452E-04  0.202E-01    1.80       1.0  T
   4    -11.2221023 -0.222043E-04  0.324E-02    1.79       1.4  T
   5    -11.2221025 -0.139969E-06  0.725E-03    1.79       6.2  T
   6    -11.2221025 -0.191410E-07  0.338E-04    1.79     132.4  T
   7    -11.2221025 -0.144306E-09  0.157E-04    1.79     284.1  T
     SCC iter.                  ...        0 min,  0.000 sec
     gradient                   ...        0 min,  0.001 sec
 * total energy  :   -11.1479263 Eh     change       -0.8756949E-02 Eh
   gradient norm :     0.0342077 Eh/α   predicted    -0.4788240E-02 ( -45.32%)
   displ. norm   :     0.3614115 α      lambda       -0.1168624E-01
   maximum displ.:     0.3339158 α      in ANC's #1, #4, #8, ...

........................................................................
.............................. CYCLE    5 ..............................
........................................................................
   1    -11.2449682 -0.112450E+02  0.162E+00    3.04       0.0  T
   2    -11.2461527 -0.118450E-02  0.759E-01    2.96       1.0  T
   3    -11.2461981 -0.454858E-04  0.306E-01    2.97       1.0  T
   4    -11.2462704 -0.722413E-04  0.471E-02    2.95       1.0  T
   5    -11.2462713 -0.959404E-06  0.112E-02    2.95       4.0  T
   6    -11.2462714 -0.144872E-07  0.133E-03    2.95      33.6  T
   7    -11.2462714 -0.191352E-08  0.209E-04    2.95     214.3  T
   8    -11.2462714 -0.102016E-10  0.125E-04    2.95     357.3  T
     SCC iter.                  ...        0 min,  0.000 sec
     gradient                   ...        0 min,  0.001 sec
 * total energy  :   -11.1636355 Eh     change       -0.1570915E-01 Eh
   gradient norm :     0.0591234 Eh/α   predicted    -0.6606332E-02 ( -57.95%)
   displ. norm   :     0.5320083 α      lambda       -0.3013007E-01
   maximum displ.:     0.4777508 α      in ANC's #1, #4, #8, ...

........................................................................
.............................. CYCLE    6 ..............................
........................................................................
   1    -11.3057259 -0.113057E+02  0.263E+00    5.80       0.0  T
   2    -11.3086281 -0.290216E-02  0.114E+00    5.72       1.0  T
   3    -11.3090740 -0.445946E-03  0.283E-01    5.57       1.0  T
   4    -11.3091610 -0.869764E-04  0.138E-01    5.53       1.0  T
   5    -11.3091627 -0.167987E-05  0.149E-02    5.54       3.0  T
   6    -11.3091628 -0.125894E-06  0.118E-02    5.53       3.8  T
   7    -11.3091629 -0.900318E-07  0.317E-04    5.53     140.9  T
   8    -11.3091629 -0.218847E-10  0.136E-04    5.53     328.5  T
     SCC iter.                  ...        0 min,  0.000 sec
     gradient                   ...        0 min,  0.001 sec
 * total energy  :   -11.2025862 Eh     change       -0.3895074E-01 Eh
   gradient norm :     0.0916056 Eh/α   predicted    -0.1932894E-01 ( -50.38%)
   displ. norm   :     0.6170235 α      lambda       -0.5055531E-01
   maximum displ.:     0.5492419 α      in ANC's #1, #4, #8, ...

........................................................................
.............................. CYCLE    7 ..............................
........................................................................
   1    -11.4077022 -0.114077E+02  0.217E+00    7.89       0.0  T
   2    -11.4089333 -0.123117E-02  0.111E+00    7.91       1.0  T
   3    -11.4094482 -0.514829E-03  0.193E-01    7.67       1.0  T
   4    -11.4094463  0.182570E-05  0.707E-02    7.69       1.0  T
   5    -11.4094489 -0.253541E-05  0.744E-03    7.66       6.0  T
   6    -11.4094489 -0.747284E-08  0.500E-03    7.65       8.9  T
   7    -11.4094489 -0.167560E-07  0.911E-04    7.65      49.1  T
   8    -11.4094489 -0.410145E-09  0.898E-05    7.65     498.0  T
     SCC iter.                  ...        0 min,  0.001 sec
     gradient                   ...        0 min,  0.001 sec
 * total energy  :   -11.2262333 Eh     change       -0.2364706E-01 Eh
   gradient norm :     0.1917929 Eh/α   predicted    -0.3490132E-01 (  47.59%)
   displ. norm   :     0.2234925 α      lambda       -0.4124979E-01
   maximum displ.:     0.1678733 α      in ANC's #6, #4, #8, ...

........................................................................
.............................. CYCLE    8 ..............................
........................................................................
   1    -11.4005111 -0.114005E+02  0.242E-01    7.36       0.0  T
   2    -11.4005261 -0.149697E-04  0.152E-01    7.32       1.0  T
   3    -11.4005263 -0.189406E-06  0.507E-02    7.27       1.0  T
   4    -11.4005290 -0.276148E-05  0.102E-02    7.26       4.4  T
   5    -11.4005291 -0.975395E-07  0.147E-03    7.27      30.5  T
   6    -11.4005291 -0.354364E-09  0.198E-04    7.27     225.7  T
   7    -11.4005291 -0.123936E-10  0.362E-05    7.27    1234.5  T
     SCC iter.                  ...        0 min,  0.000 sec
     gradient                   ...        0 min,  0.001 sec
 * total energy  :   -11.2487659 Eh     change       -0.2253263E-01 Eh
   gradient norm :     0.0695114 Eh/α   predicted    -0.2165509E-01 (  -3.89%)
   displ. norm   :     0.4201397 α      lambda       -0.2777892E-01
   maximum displ.:     0.2578969 α      in ANC's #6, #1, #8, ...

........................................................................
.............................. CYCLE    9 ..............................
........................................................................
   1    -11.4080626 -0.114081E+02  0.827E-01    7.39       0.0  T
   2    -11.4083406 -0.277964E-03  0.464E-01    7.15       1.0  T
   3    -11.4083686 -0.280799E-04  0.197E-01    6.83       1.0  T
   4    -11.4084169 -0.482667E-04  0.512E-02    6.73       1.0  T
   5    -11.4084172 -0.295833E-06  0.565E-03    6.74       7.9  T
   6    -11.4084172 -0.128796E-07  0.224E-03    6.74      19.9  T
   7    -11.4084172 -0.128755E-08  0.553E-05    6.74     808.5  T
   8    -11.4084172 -0.822453E-12  0.264E-05    6.74    1697.0  T
     SCC iter.                  ...        0 min,  0.001 sec
     gradient                   ...        0 min,  0.001 sec
 * total energy  :   -11.2689283 Eh     change       -0.2016240E-01 Eh
   gradient norm :     0.0483451 Eh/α   predicted    -0.1634119E-01 ( -18.95%)
   displ. norm   :     0.5786279 α      lambda       -0.2370238E-01
   maximum displ.:     0.4212780 α      in ANC's #1, #8, #6, ...

........................................................................
.............................. CYCLE   10 ..............................
........................................................................
   1    -11.4631918 -0.114632E+02  0.612E-01    8.01       0.0  T
   2    -11.4633558 -0.164062E-03  0.372E-01    7.81       1.0  T
   3    -11.4633626 -0.678921E-05  0.154E-01    7.69       1.0  T
   4    -11.4633779 -0.153026E-04  0.180E-02    7.60       2.5  T
   5    -11.4633780 -0.462368E-07  0.132E-03    7.61      34.0  T
   6    -11.4633780 -0.803080E-09  0.766E-04    7.61      58.4  T
   7    -11.4633780 -0.984066E-10  0.482E-05    7.61     927.9  T
     SCC iter.                  ...        0 min,  0.000 sec
     gradient                   ...        0 min,  0.001 sec
 * total energy  :   -11.2788392 Eh     change       -0.9910899E-02 Eh
   gradient norm :     0.1076689 Eh/α   predicted    -0.1581909E-01 (  59.61%)
   displ. norm   :     0.2841182 α      lambda       -0.1226559E-01
   maximum displ.:     0.1912656 α      in ANC's #6, #1, #8, ...

........................................................................
.............................. CYCLE   11 ..............................
........................................................................
   1    -11.4356956 -0.114357E+02  0.491E-01    6.74       0.0  T
   2    -11.4358872 -0.191647E-03  0.279E-01    6.77       1.0  T
   3    -11.4359073 -0.200618E-04  0.158E-01    6.71       1.0  T
   4    -11.4359201 -0.128472E-04  0.166E-02    6.69       2.7  T
   5    -11.4359202 -0.454273E-07  0.148E-03    6.69      30.1  T
   6    -11.4359202 -0.317072E-08  0.631E-04    6.69      70.8  T
   7    -11.4359202 -0.382769E-10  0.458E-05    6.69     977.3  T
     SCC iter.                  ...        0 min,  0.001 sec
     gradient                   ...        0 min,  0.001 sec
 * total energy  :   -11.2847528 Eh     change       -0.5913540E-02 Eh
   gradient norm :     0.0265759 Eh/α   predicted    -0.6627851E-02 (  12.08%)
   displ. norm   :     0.1547614 α      lambda       -0.2253345E-02
   maximum displ.:     0.1121114 α      in ANC's #1, #6, #4, ...

........................................................................
.............................. CYCLE   12 ..............................
........................................................................
   1    -11.4402192 -0.114402E+02  0.112E-01    6.80       0.0  T
   2    -11.4402205 -0.129193E-05  0.699E-02    6.80       1.0  T
   3    -11.4402206 -0.109005E-06  0.134E-02    6.81       3.3  T
   4    -11.4402211 -0.436899E-06  0.327E-03    6.81      13.7  T
   5    -11.4402211 -0.152130E-08  0.171E-04    6.81     261.8  T
   6    -11.4402211 -0.135714E-11  0.971E-05    6.81     460.6  T
     SCC iter.                  ...        0 min,  0.000 sec
     gradient                   ...        0 min,  0.001 sec
 * total energy  :   -11.2867093 Eh     change       -0.1956588E-02 Eh
   gradient norm :     0.0185616 Eh/α   predicted    -0.1153657E-02 ( -41.04%)
   displ. norm   :     0.4126883 α      lambda       -0.4499241E-02
   maximum displ.:     0.3023984 α      in ANC's #1, #6, #4, ...

........................................................................
.............................. CYCLE   13 ..............................
........................................................................
   1    -11.4437552 -0.114438E+02  0.284E-01    6.87       0.0  T
   2    -11.4437598 -0.459836E-05  0.178E-01    6.88       1.0  T
   3    -11.4437631 -0.336761E-05  0.105E-02    6.88       4.3  T
   4    -11.4437632 -0.110544E-07  0.154E-03    6.88      29.1  T
   5    -11.4437632 -0.479446E-08  0.197E-04    6.88     226.8  T
   6    -11.4437632 -0.542304E-10  0.876E-05    6.88     510.8  T
     SCC iter.                  ...        0 min,  0.001 sec
     gradient                   ...        0 min,  0.001 sec
 * total energy  :   -11.2897458 Eh     change       -0.3036449E-02 Eh
   gradient norm :     0.0069608 Eh/α   predicted    -0.2632750E-02 ( -13.30%)
   displ. norm   :     0.3118277 α      lambda       -0.1279011E-02
   maximum displ.:     0.2336383 α      in ANC's #1, #6, #4, ...

........................................................................
.............................. CYCLE   14 ..............................
........................................................................
   1    -11.4443455 -0.114443E+02  0.915E-02    6.87       0.0  T
   2    -11.4443463 -0.758521E-06  0.568E-02    6.87       1.0  T
   3    -11.4443464 -0.149870E-06  0.935E-03    6.86       4.8  T
   4    -11.4443466 -0.216618E-06  0.245E-03    6.86      18.3  T
   5    -11.4443466 -0.883619E-09  0.876E-05    6.86     510.3  T
   6    -11.4443466 -0.468781E-11  0.459E-05    6.86     974.3  T
     SCC iter.                  ...        0 min,  0.000 sec
     gradient                   ...        0 min,  0.001 sec
 * total energy  :   -11.2906671 Eh     change       -0.9213124E-03 Eh
   gradient norm :     0.0032273 Eh/α   predicted    -0.7016997E-03 ( -23.84%)
   displ. norm   :     0.3073474 α      lambda       -0.6449582E-03
   maximum displ.:     0.2293239 α      in ANC's #1, #6, #8, ...

........................................................................
.............................. CYCLE   15 ..............................
........................................................................
   1    -11.4455817 -0.114456E+02  0.186E-02    6.86       0.0  T
   2    -11.4455818 -0.553583E-07  0.109E-02    6.86       4.1  T
   3    -11.4455817  0.759555E-08  0.325E-03    6.85      13.8  T
   4    -11.4455818 -0.150318E-07  0.264E-04    6.85     169.5  T
   5    -11.4455818  0.271783E-11  0.421E-05    6.85    1063.4  T
     SCC iter.                  ...        0 min,  0.000 sec
     gradient                   ...        0 min,  0.001 sec
 * total energy  :   -11.2911361 Eh     change       -0.4690355E-03 Eh
   gradient norm :     0.0025869 Eh/α   predicted    -0.3529445E-03 ( -24.75%)
   displ. norm   :     0.2903929 α      lambda       -0.3214874E-03
   maximum displ.:     0.2131289 α      in ANC's #1, #6, #8, ...

........................................................................
.............................. CYCLE   16 ..............................
........................................................................
   1    -11.4461383 -0.114461E+02  0.274E-02    6.83       0.0  T
   2    -11.4461386 -0.370171E-06  0.171E-02    6.83       2.6  T
   3    -11.4461387 -0.284841E-07  0.803E-03    6.83       5.6  T
   4    -11.4461387 -0.392274E-07  0.781E-04    6.83      57.3  T
   5    -11.4461387 -0.674341E-10  0.270E-05    6.83    1655.0  T
     SCC iter.                  ...        0 min,  0.000 sec
     gradient                   ...        0 min,  0.001 sec
 * total energy  :   -11.2913664 Eh     change       -0.2302475E-03 Eh
   gradient norm :     0.0026927 Eh/α   predicted    -0.1742992E-03 ( -24.30%)
   displ. norm   :     0.2606180 α      lambda       -0.1461885E-03
   maximum displ.:     0.1893688 α      in ANC's #1, #6, #8, ...

........................................................................
.............................. CYCLE   17 ..............................
........................................................................
   1    -11.4460560 -0.114461E+02  0.321E-02    6.80       0.0  T
   2    -11.4460586 -0.267754E-05  0.167E-02    6.80       2.7  T
   3    -11.4460590 -0.313812E-06  0.904E-03    6.80       4.9  T
   4    -11.4460590 -0.754003E-08  0.631E-04    6.79      70.9  T
   5    -11.4460590 -0.509530E-10  0.596E-05    6.79     750.7  T
     SCC iter.                  ...        0 min,  0.000 sec
     gradient                   ...        0 min,  0.001 sec
 * total energy  :   -11.2914642 Eh     change       -0.9775829E-04 Eh
   gradient norm :     0.0042085 Eh/α   predicted    -0.7805801E-04 ( -20.15%)
   displ. norm   :     0.2377723 α      lambda       -0.7389372E-04
   maximum displ.:     0.1726301 α      in ANC's #1, #6, #8, ...

........................................................................
.............................. CYCLE   18 ..............................
........................................................................
   1    -11.4458604 -0.114459E+02  0.567E-02    6.77       0.0  T
   2    -11.4458725 -0.120858E-04  0.279E-02    6.77       1.6  T
   3    -11.4458739 -0.139595E-05  0.115E-02    6.77       3.9  T
   4    -11.4458739 -0.685202E-08  0.481E-04    6.77      93.0  T
   5    -11.4458739 -0.332534E-10  0.227E-04    6.77     197.0  T
     SCC iter.                  ...        0 min,  0.000 sec
     gradient                   ...        0 min,  0.001 sec
 * total energy  :   -11.2914931 Eh     change       -0.2894835E-04 Eh
   gradient norm :     0.0076805 Eh/α   predicted    -0.3903722E-04 (  34.85%)
   displ. norm   :     0.1012230 α      lambda       -0.2747461E-04
   maximum displ.:     0.0738875 α      in ANC's #1, #6, #8, ...

........................................................................
.............................. CYCLE   19 ..............................
........................................................................
   1    -11.4458411 -0.114458E+02  0.377E-02    6.76       0.0  T
   2    -11.4458465 -0.538687E-05  0.184E-02    6.76       2.4  T
   3    -11.4458471 -0.621492E-06  0.745E-03    6.76       6.0  T
   4    -11.4458471 -0.248521E-08  0.221E-04    6.76     202.0  T
   5    -11.4458471 -0.163531E-10  0.674E-05    6.76     663.7  T
     SCC iter.                  ...        0 min,  0.001 sec
     gradient                   ...        0 min,  0.001 sec
 * total energy  :   -11.2915078 Eh     change       -0.1472004E-04 Eh
   gradient norm :     0.0004892 Eh/α   predicted    -0.1387730E-04 (  -5.73%)
   displ. norm   :     0.0604022 α      lambda       -0.1284125E-05
   maximum displ.:     0.0446792 α      in ANC's #1, #6, #8, ...

........................................................................
.............................. CYCLE   20 ..............................
........................................................................
   1    -11.4459211 -0.114459E+02  0.264E-03    6.76       0.0  T
   2    -11.4459211 -0.226894E-08  0.165E-03    6.76      27.0  T
   3    -11.4459211 -0.810285E-10  0.650E-04    6.76      68.8  T
   4    -11.4459211 -0.393092E-09  0.663E-05    6.76     674.4  T
     SCC iter.                  ...        0 min,  0.000 sec
     gradient                   ...        0 min,  0.001 sec
 * total energy  :   -11.2915089 Eh     change       -0.1079702E-05 Eh
   gradient norm :     0.0003690 Eh/α   predicted    -0.6421398E-06 ( -40.53%)
   displ. norm   :     0.0077389 α      lambda       -0.9554913E-07
   maximum displ.:     0.0059116 α      in ANC's #1, #6, #8, ...

   *** GEOMETRY OPTIMIZATION CONVERGED AFTER 20 ITERATIONS ***

------------------------------------------------------------------------
 total energy gain   :        -0.1916834 Eh     -120.2832 kcal/mol
 total RMSD          :         2.1839890 a0        1.1557 Å
 total power (kW/mol):       -25.1632367 (step)********** (real)
------------------------------------------------------------------------

 ANCopt (total)                0 d,  0 h,  0 min,  0.038 sec
 optimizer setup                ...        0 min,  0.000 sec (  0.250%)
 model hessian                  ...        0 min,  0.000 sec (  0.216%)
 ANC generation                 ...        0 min,  0.000 sec (  0.109%)
 coordinate transformation      ...        0 min,  0.000 sec (  0.164%)
 single point calculation       ...        0 min,  0.037 sec ( 95.598%)
 optimization log               ...        0 min,  0.000 sec (  1.289%)
 hessian update                 ...        0 min,  0.000 sec (  0.089%)
 rational function              ...        0 min,  0.000 sec (  0.960%)

================
 final structure:
================
5
 xtb: 6.2.2 (9d81278992624c895f80dd42a50cac0aa55982e2)
C         0.13060335982434    1.32744119998824   -0.15365332168022
O         1.26412893848514    1.20682201242633   -0.24461379473918
O        -1.00278230738508    1.45074643220063   -0.06299236724050
H        -0.16072512736573   -1.95143080216299    0.61543303328106
H        -0.23122486355867   -2.03357784245219   -0.15417354962115

 Bond Distances (Angstroems)
 ---------------------------
C1-O2=1.1435         C1-O3=1.1437         O2-C1=1.1435         O3-C1=1.1437         H4-H5=0.7772         H5-H4=0.7772         
 H  H  Rav=0.7772 sigma=0.0000  Rmin=0.7772  Rmax=0.7772     1
 O  C  Rav=1.1436 sigma=0.0001  Rmin=1.1435  Rmax=1.1437     2

 selected bond angles (degree)
 --------------------
O3-C1-O2=179.86                

 selected dihedral angles (degree)
 ---------------------------------

           -------------------------------------------------
          |                Final Singlepoint                |
           -------------------------------------------------

          ...................................................
          :                      SETUP                      :
          :.................................................:
          :  # basis functions                  14          :
          :  # atomic orbitals                  14          :
          :  # shells                            8          :
          :  # electrons                        18          :
          :  max. iterations                   250          :
          :  Hamiltonian                  GFN2-xTB          :
          :  restarted?                      false          :
          :  GBSA solvation                  false          :
          :  PC potential                    false          :
          :  electronic temp.          300.0000000     K    :
          :  accuracy                    1.0000000          :
          :  -> integral cutoff          0.2500000E+02      :
          :  -> integral neglect         0.1000000E-07      :
          :  -> SCF convergence          0.1000000E-05 Eh   :
          :  -> wf. convergence          0.1000000E-03 e    :
          :  Broyden damping             0.4000000          :
          ...................................................

 iter      E             dE          RMSdq      gap      omega  full diag
   1    -11.4459211 -0.114459E+02  0.775E-06    6.76       0.0  T
   2    -11.4459211 -0.639488E-13  0.458E-06    6.76    9758.8  T
   3    -11.4459211 -0.142109E-13  0.278E-06    6.76   16088.1  T

   *** convergence criteria satisfied after 3 iterations ***

         #    Occupation            Energy/Eh            Energy/eV
      -------------------------------------------------------------
         1        2.0000           -0.8102584             -22.0483
       ...           ...                  ...                  ...
         3        2.0000           -0.6644530             -18.0807
         4        2.0000           -0.6629830             -18.0407
         5        2.0000           -0.6629828             -18.0407
         6        2.0000           -0.5994570             -16.3121
         7        2.0000           -0.5339732             -14.5302
         8        2.0000           -0.5339707             -14.5301
         9        2.0000           -0.4718145             -12.8387 (HOMO)
        10                         -0.2235055              -6.0819 (LUMO)
        11                         -0.2234477              -6.0803
        12                          0.1190576               3.2397
        13                          0.3104449               8.4476
        14                          1.3649681              37.1427
      -------------------------------------------------------------
                  HL-Gap            0.2483089 Eh            6.7568 eV
             Fermi-level           -0.3476600 Eh           -9.4603 eV

 SCC (total)                   0 d,  0 h,  0 min,  0.001 sec
 SCC setup                      ...        0 min,  0.000 sec (  3.065%)
 Dispersion                     ...        0 min,  0.000 sec (  0.522%)
 integral evaluation            ...        0 min,  0.001 sec ( 42.651%)
 zeroth order Hamiltonian       ...        0 min,  0.000 sec (  0.592%)
 iterations                     ...        0 min,  0.000 sec ( 11.982%)
 molecular gradient             ...        0 min,  0.001 sec ( 36.816%)
 printout                       ...        0 min,  0.000 sec (  3.936%)

         :::::::::::::::::::::::::::::::::::::::::::::::::::::
         ::                     SUMMARY                     ::
         :::::::::::::::::::::::::::::::::::::::::::::::::::::
         :: total energy             -11.291508900756 Eh    ::
         :: gradient norm              0.000381557154 Eh/a0 ::
         :: HOMO-LUMO gap              6.756829300741 eV    ::
         ::.................................................::
         :: SCC energy               -11.445921081424 Eh    ::
         :: -> isotropic ES            0.032299948174 Eh    ::
         :: -> anisotropic ES          0.011878006876 Eh    ::
         :: -> anisotropic XC          0.009608890846 Eh    ::
         :: -> dispersion             -0.001153840936 Eh    ::
         :: repulsion energy           0.154411825482 Eh    ::
         :: add. restraining           0.000000000000 Eh    ::
         :::::::::::::::::::::::::::::::::::::::::::::::::::::

           ------------------------------------------------- 
          |                Numerical Hessian                |
           ------------------------------------------------- 
step length          :   0.00500
SCC accuracy         :   0.30000
Hessian scale factor :   1.00000
frozen atoms in %    :   0.00000    0
RMS gradient         :   0.00038
estimated CPU  time      0.00 min
estimated wall time      0.00 min

writing file <hessian>.

 projected vibrational frequencies (cm-1)
eigval :       -0.00    -0.00     0.00     0.00     0.00     0.00
eigval :      -44.80    31.87    53.32    77.62   599.22   600.80
eigval :     1424.92  2593.46  3734.82
           -------------------------------------------------
          |                Property Printout                |
           -------------------------------------------------

    * Orbital Energies and Occupations

         #    Occupation            Energy/Eh            Energy/eV
      -------------------------------------------------------------
         1        2.0000           -0.8102584             -22.0483
         2        2.0000           -0.7961738             -21.6650
         3        2.0000           -0.6644530             -18.0807
         4        2.0000           -0.6629830             -18.0407
         5        2.0000           -0.6629828             -18.0407
         6        2.0000           -0.5994570             -16.3121
         7        2.0000           -0.5339732             -14.5302
         8        2.0000           -0.5339707             -14.5301
         9        2.0000           -0.4718145             -12.8387 (HOMO)
        10                         -0.2235056              -6.0819 (LUMO)
        11                         -0.2234477              -6.0803
        12                          0.1190576               3.2397
        13                          0.3104449               8.4476
        14                          1.3649680              37.1427
      -------------------------------------------------------------
                  HL-Gap            0.2483089 Eh            6.7568 eV
             Fermi-level           -0.3476600 Eh           -9.4603 eV

     #   Z        covCN         q      C6AA      α(0)
     1   6 C      1.711     0.464    21.604     7.525
     2   8 O      0.856    -0.232    18.598     5.782
Molecule has the following symmetry elements: (C2) 2*(sigma) 
It seems to be the C2v point group
     3   8 O      0.856    -0.232    18.600     5.782
     4   1 H      0.812     0.000     3.104     2.766
     5   1 H      0.812     0.000     3.104     2.766

 Mol. C6AA /au·bohr⁶  :        279.575514
 Mol. C8AA /au·bohr⁸  :       5723.442006
 Mol. α(0) /au        :         24.621452


Wiberg/Mayer (AO) data.
largest (>0.10) Wiberg bond orders for each atom
          total WBO             WBO to atom ...
     1  C   3.936        O    2 1.968    O    3 1.968
     2  O   2.370        C    1 1.968    O    3 0.402
     3  O   2.370        C    1 1.968    O    2 0.402
     4  H   1.000        H    5 1.000
     5  H   1.000        H    4 1.000

MOs/occ written to file <molden.input>


molecular dipole:
                 x           y           z       tot (Debye)
 q only:        0.000      -0.003       0.000
   full:       -0.000      -0.005       0.001       0.012
molecular quadrupole (traceless):
                xx          xy          yy          xz          yz          zz
 q only:       -2.109       0.344       1.043       0.256      -0.027       1.066
  q+dip:       -3.427       0.504       1.076       0.481       0.096       2.351
   full:       -4.402       0.695       1.926       0.561       0.001       2.477

           -------------------------------------------------
          |                Geometry Summary                 |
           -------------------------------------------------

      molecular mass/u    :       46.0254272
   center of mass at/Å    :        0.1163538       1.1829628      -0.1369286
  moments of inertia/u·Å² :        0.2205332E+02   0.4215382E+02   0.6359834E+02
rotational constants/cm⁻¹ :        0.7644032E+00   0.3999075E+00   0.2650640E+00

 * 3 selected distances

     #   Z        #   Z                                     value/Å
     1   6 C      2   8 O                                 1.1435484
     1   6 C      3   8 O                                 1.1436724 (max)
     4   1 H      5   1 H                                 0.7771825 (min)

 * 2 distinct bonds (by element types)

   Z      Z             #   av. dist./Å        max./Å        min./Å
   1 H    1 H           1     0.7771825     0.7771825     0.7771825
   6 C    8 O           2     1.1436104     1.1436724     1.1435484

           -------------------------------------------------
          |               Frequency Printout                |
           -------------------------------------------------
 projected vibrational frequencies (cm-1)
eigval :       -0.00    -0.00     0.00     0.00     0.00     0.00
eigval :      -44.80    31.87    53.32    77.62   599.22   600.80
eigval :     1424.92  2593.46  3734.82
 reduced masses (amu)
   1: 14.64   2: 15.40   3: 13.78   4: 11.63   5: 14.86   6:  1.18   7:  1.12   8:  6.54
   9:  1.02  10:  1.61  11: 13.10  12: 13.10  13: 16.00  14: 13.10  15:  1.01
 IR intensities (amu)
   1:  0.06   2:  0.04   3:  0.06   4:  0.02   5:  0.24   6:  0.01   7:  0.00   8:  0.04
   9:  0.03  10:  0.01  11:  0.97  12:  0.94  13:  0.01  14:  3.74  15:  0.00
 Raman intensities (amu)
   1:  0.00   2:  0.00   3:  0.00   4:  0.00   5:  0.00   6:  0.00   7:  0.00   8:  0.00
   9:  0.00  10:  0.00  11:  0.00  12:  0.00  13:  0.00  14:  0.00  15:  0.00
 output can be read by thermo (or use thermo option).
 writing <g98.out> molden fake output.
 recommended (thermochemical) frequency scaling factor: 1.0
           -------------------------------------------------
          |             Thermodynamic Functions             |
           -------------------------------------------------

c2v symmetry found (for desy threshold:  0.10E+00) used in thermo

          ...................................................
          :                      SETUP                      :
          :.................................................:
          :  # frequencies                           8      :
          :  # imaginary freq.                       1      :
          :  linear?                             false      :
          :  only rotor calc.                    false      :
          :  symmetry                              c2v      :
          :  rotational number                       2      :
          :  scaling factor                  1.0000000      :
          :  rotor cutoff                   50.0000000 cm⁻¹ :
          :  imag. cutoff                  -20.0000000 cm⁻¹ :
          :.................................................:

    mode    ω/cm⁻¹     T·S(HO)/kcal·mol⁻¹    T·S(FR)/kcal·mol⁻¹   T·S(vib)
   ------------------------------------------------------------------------
       1     31.87    -0.00114 ( 14.17%)    -0.00606 ( 85.83%)    -0.00536
       2     53.32    -0.00008 ( 56.40%)    -0.00099 ( 43.60%)    -0.00048
       3     77.62    -0.00000 ( 85.31%)     0.00272 ( 14.69%)     0.00040
   ------------------------------------------------------------------------

   temp. (K)  partition function   enthalpy   heat capacity  entropy
                                   cal/mol     cal/K/mol   cal/K/mol   J/K/mol
 298.15  VIB   111.                 1761.071      8.086     13.125
         ROT  0.929E+04              888.752      2.981     21.137
         INT  0.103E+07             2649.823     11.067     34.262
         TR   0.302E+27             1481.254      4.968     37.388
         TOT                        4131.0774    16.0348    71.6501   299.7839

   temp. (K)  partition function   enthalpy   heat capacity  entropy
                                   cal/mol     cal/K/mol   cal/K/mol   J/K/mol
 120.00  VIB   11.0                  513.161      5.889      8.178
         ROT  0.237E+04              357.707      2.981     18.424
         INT  0.261E+05              870.868      8.870     26.603
         TR   0.771E+26              596.178      4.968     32.869
         TOT                        1467.0459    13.8378    59.4714   248.8283

   temp. (K)  partition function   enthalpy   heat capacity  entropy
                                   cal/mol     cal/K/mol   cal/K/mol   J/K/mol
 100.00  VIB   7.55                  397.387      5.691      7.369
         ROT  0.180E+04              298.089      2.981     17.881
         INT  0.136E+05              695.476      8.672     25.250
         TR   0.587E+26              496.815      4.968     31.963
         TOT                        1192.2911    13.6402    57.2135   239.3813

   temp. (K)  partition function   enthalpy   heat capacity  entropy
                                   cal/mol     cal/K/mol   cal/K/mol   J/K/mol
  80.00  VIB   4.94                  285.597      5.479      6.415
         ROT  0.129E+04              238.471      2.981     17.216
         INT  0.638E+04              524.069      8.460     23.630
         TR   0.420E+26              397.452      4.968     30.855
         TOT                         921.5207    13.4277    54.4857   227.9682

   temp. (K)  partition function   enthalpy   heat capacity  entropy
                                   cal/mol     cal/K/mol   cal/K/mol   J/K/mol
  60.00  VIB   3.07                  179.101      5.132      5.239
         ROT   838.                  178.853      2.981     16.358
         INT  0.257E+04              357.955      8.113     21.597
         TR   0.273E+26              298.089      4.968     29.427
         TOT                         656.0435    13.0808    51.0239   213.4838

   temp. (K)  partition function   enthalpy   heat capacity  entropy
                                   cal/mol     cal/K/mol   cal/K/mol   J/K/mol
  40.00  VIB   1.83                   83.194      4.336      3.731
         ROT   456.                  119.236      2.981     15.150
         INT   835.                  202.430      7.317     18.880
         TR   0.148E+26              198.726      4.968     27.413
         TOT                         401.1558    12.2855    46.2937   193.6927

   temp. (K)  partition function   enthalpy   heat capacity  entropy
                                   cal/mol     cal/K/mol   cal/K/mol   J/K/mol
  20.00  VIB   1.14                   14.436      2.199      1.779
         ROT   161.                   59.618      2.981     13.083
         INT   184.                   74.054      5.180     14.863
         TR   0.525E+25               99.363      4.968     23.971
         TOT                         173.4171    10.1481    38.8341   162.4818

   temp. (K)  partition function   enthalpy   heat capacity  entropy
                                   cal/mol     cal/K/mol   cal/K/mol   J/K/mol
  10.00  VIB   1.01                    1.013      0.493      0.544
         ROT   57.0                   29.809      2.981     11.017
         INT   57.7                   30.822      3.474     11.561
         TR   0.186E+25               49.681      4.968     20.529
         TOT                          80.5035     8.4421    32.0904   134.2662

       T/K    H(0)-H(T)+PV         H(T)/Eh          T*S/Eh         G(T)/Eh
   ------------------------------------------------------------------------
    298.15    0.658329E-02    0.273511E-01    0.340433E-01   -0.669213E-02
    120.00    0.233789E-02    0.231057E-01    0.113728E-01    0.117329E-01
    100.00    0.190004E-02    0.226679E-01    0.911755E-02    0.135503E-01
     80.00    0.146854E-02    0.222364E-01    0.694628E-02    0.152901E-01
     60.00    0.104547E-02    0.218133E-01    0.487870E-02    0.169346E-01
     40.00    0.639282E-03    0.214071E-01    0.295095E-02    0.184562E-01
     20.00    0.276358E-03    0.210442E-01    0.123772E-02    0.198065E-01
     10.00    0.128291E-03    0.208961E-01    0.511393E-03    0.203847E-01 (used)
   ------------------------------------------------------------------------

         :::::::::::::::::::::::::::::::::::::::::::::::::::::
         ::                  THERMODYNAMIC                  ::
         :::::::::::::::::::::::::::::::::::::::::::::::::::::
         :: total free energy         -11.271124162718 Eh   ::
         ::.................................................::
         :: total energy              -11.291508900760 Eh   ::
         :: zero point energy           0.020767840355 Eh   ::
         :: G(RRHO) w/o ZPVE           -0.000383102314 Eh   ::
         :: G(RRHO) contrib.            0.020384738042 Eh   ::
         :::::::::::::::::::::::::::::::::::::::::::::::::::::
imag cut-off (cm-1) :    5.00
 found            1  significant imaginary frequency
 writing imag mode distorted coords to xtbhess.xyz
 for further optimization.

optimized geometry written to: xtbopt.xyz


           -------------------------------------------------
          | TOTAL ENERGY              -11.291508900760 Eh   |
          | TOTAL ENTHALPY            -11.270612769858 Eh   |
          | TOTAL FREE ENERGY         -11.271124162718 Eh   |
          | GRADIENT NORM               0.000381550237 Eh/α |
          | HOMO-LUMO GAP               6.756829298322 eV   |
           -------------------------------------------------

------------------------------------------------------------------------
 * finished run on 2020/05/12 at 11:43:51.999     
------------------------------------------------------------------------
 total:
 * wall-time:     0 d,  0 h,  0 min,  0.105 sec
 *  cpu-time:     0 d,  0 h,  0 min,  0.104 sec
 * ratio c/w:     0.992 speedup
 SCF:
 * wall-time:     0 d,  0 h,  0 min,  0.002 sec
 *  cpu-time:     0 d,  0 h,  0 min,  0.002 sec
 * ratio c/w:     1.000 speedup
 ANC optimizer:
 * wall-time:     0 d,  0 h,  0 min,  0.041 sec
 *  cpu-time:     0 d,  0 h,  0 min,  0.040 sec
 * ratio c/w:     1.000 speedup
 numerical hessian:
 * wall-time:     0 d,  0 h,  0 min,  0.047 sec
 *  cpu-time:     0 d,  0 h,  0 min,  0.047 sec
 * ratio c/w:     0.995 speedup

