[Molden Format]
[Title]
[Atoms] AU
C      1     6  0.24681667902142E+00  0.25084982827070E+01 -0.29036790884162E+00
O      2     8  0.23888675856793E+01  0.22805495582277E+01 -0.46226535448917E+00
O      3     8 -0.18949698087346E+01  0.27415228930910E+01 -0.11903648108314E+00
H      4     1 -0.30374169280492E+00 -0.36876658049449E+01  0.11630072694397E+01
H      5     1 -0.43697276315125E+00 -0.38429030393548E+01 -0.29133752502903E+00
[GTO]
           1 0
 s           4   1.0000000000000000     
   51.049363095579913      -0.16312063210127389     
   8.7911227406887544      -0.19911024581000730     
  0.70640422258929825       0.31882047753655751     
  0.26922813413411617       0.12706504184240380     
 p           4   1.0000000000000000     
   5.8263656140800002       0.73716451545209605     
   1.5106896018720002       0.68216371614850257     
  0.53256483288000001       0.35783053929253711     
  0.21202323690600003        5.3983030275847881E-002

           2 0
 s           4   1.0000000000000000     
   69.137961906196551      -0.20478756370077797     
   11.906129132707308      -0.24997023136827334     
  0.95670827744340703       0.40025880240639616     
  0.36462520496073686       0.15952206667693555     
 p           4   1.0000000000000000     
   8.2124193257781641        1.1321556799186829     
   2.1293576997098116        1.0476840782254817     
  0.75066448202360914       0.54956508217158984     
  0.29885246543283073        8.2908486592766617E-002

           3 0
 s           4   1.0000000000000000     
   69.137961906196551      -0.20478756370077797     
   11.906129132707308      -0.24997023136827334     
  0.95670827744340703       0.40025880240639616     
  0.36462520496073686       0.15952206667693555     
 p           4   1.0000000000000000     
   8.2124193257781641        1.1321556799186829     
   2.1293576997098116        1.0476840782254817     
  0.75066448202360914       0.54956508217158984     
  0.29885246543283073        8.2908486592766617E-002

           4 0
 s           3   1.0000000000000000     
   3.3702276975336001       0.27359110588908298     
  0.61389118221497996       0.26460540653860526     
  0.16614291148415999        8.2465947534082318E-002

           5 0
 s           3   1.0000000000000000     
   3.3702276975336001       0.27359110588908298     
  0.61389118221497996       0.26460540653860526     
  0.16614291148415999        8.2465947534082318E-002

[MO]
Sym=     1a
Ene=  -0.81025840456887910     
Spin= Alpha
Occup=     2.00000000
           1  0.47898876065029655     
           2   7.6175883906993123E-004
           3   2.0826987820130884E-003
           4  -2.9208957599209548E-004
           5  0.37742832763597767     
           6 -0.20900007090505776     
           7   2.3513627673810919E-002
           8   1.6636211603920897E-002
           9  0.37595652488490194     
          10  0.20884512558748666     
          11  -2.1451884698415333E-002
          12  -1.6842087650015790E-002
          13  -1.4184809870031710E-004
          14  -1.4184858054395701E-004
Sym=     2a
Ene=  -0.79617382595117714     
Spin= Alpha
Occup=     2.00000000
           1  -7.5521974690655571E-004
           2  0.36906623425631169     
           3  -3.9717757164479034E-002
           4  -2.9569885109834167E-002
           5  0.48926416041599863     
           6 -0.10227356908045852     
           7   1.1653392135290489E-002
           8   8.1251917080407375E-003
           9 -0.49033842979554654     
          10 -0.10310936712468906     
          11   1.0444094119221193E-002
          12   8.3308380800325311E-003
          13   1.2126579445327133E-007
          14   1.2078361522932939E-007
Sym=     3a
Ene=  -0.66445301693879411     
Spin= Alpha
Occup=     2.00000000
           1  0.26251240440679446     
           2  -3.8413086955496330E-003
           3  -3.9850880199668530E-002
           4   4.6055624563747363E-003
           5 -0.53850197028655700     
           6 -0.42183669163261245     
           7   1.0380005507195023E-002
           8   3.7535564665595544E-002
           9 -0.53841071579691746     
          10  0.41466715237370794     
          11  -7.9609686484756095E-002
          12  -2.9489227677511831E-002
          13   1.2129823351878541E-003
          14   1.2129816158169137E-003
Sym=     4a
Ene=  -0.66298297452350430     
Spin= Alpha
Occup=     2.00000000
           1   1.7615190165345032E-002
           2   5.3680777027653392E-002
           3  0.54585961406931971     
           4  -6.3196326932453029E-002
           5  -4.1130223522899044E-002
           6   1.4328122990744719E-002
           7  0.46224596850168403     
           8  -5.0664217598726448E-002
           9  -4.1124055948964643E-002
          10   7.5868823568318991E-002
          11  0.45529628157885993     
          12  -5.5560009050531649E-002
          13  -4.4021652013955343E-003
          14  -4.4021136093630618E-003
Sym=     5a
Ene=  -0.66298276582068605     
Spin= Alpha
Occup=     2.00000000
           1   4.3732692468002100E-007
           2   5.0224770584324022E-002
           3   5.8532945807468470E-002
           4  0.54824258494162148     
           5  -1.0254917809547986E-006
           6   4.2234769168542588E-002
           7   4.9222184310344336E-002
           8  0.46103366480491526     
           9  -1.0175920302651705E-006
          10   4.2206480469330163E-002
          11   4.9187267973976857E-002
          12  0.46070804426509315     
          13   9.8843385533008642E-004
          14  -9.8864707319273079E-004
Sym=     6a
Ene=  -0.59945700006640823     
Spin= Alpha
Occup=     2.00000000
           1  -1.0223501667028218E-004
           2  0.27934979159564277     
           3  -3.0059614713138158E-002
           4  -2.2382059589879637E-002
           5 -0.36900851703379006     
           6 -0.56139480736302505     
           7   5.7756745352972025E-002
           8   4.5263223165728068E-002
           9  0.36928225980127938     
          10 -0.56110288195200075     
          11   6.3034173968313928E-002
          12   4.4673170803246391E-002
          13  -6.1329702546968043E-007
          14  -6.1363381034698755E-007
Sym=     7a
Ene=  -0.53397323503424554     
Spin= Alpha
Occup=     2.00000000
           1  -9.6867139151393441E-010
           2  -1.1615555717962485E-005
           3  -1.3534782129936847E-005
           4  -1.2680083367506311E-004
           5  -1.6672583496673329E-008
           6   6.4426793258074183E-002
           7   7.5069440473757701E-002
           8  0.70328858234376668     
           9  -1.4406078962243374E-008
          10  -6.4449979474637348E-002
          11  -7.5096448767785498E-002
          12 -0.70354161626377332     
          13  -4.5205928682366319E-007
          14   4.5431618054610196E-007
Sym=     8a
Ene=  -0.53397072819656610     
Spin= Alpha
Occup=     2.00000000
           1   3.9600860547026398E-008
           2   2.7139684246615215E-004
           3  -1.5706362680698184E-004
           4  -8.0969855362967434E-006
           5  -1.4173393857927416E-003
           6   6.6559026487665901E-002
           7  0.70242177419906648     
           8  -8.1074249713380578E-002
           9   1.4186178637223728E-003
          10  -7.1557307641106169E-002
          11 -0.70213893184004339     
          12   8.1501941132961275E-002
          13   6.2819815819459140E-006
          14   6.2884001052358899E-006
Sym=     9a
Ene=  -0.47181445945679323     
Spin= Alpha
Occup=     2.00000000
           1   6.9401680301725706E-004
           2  -2.0828049934728111E-004
           3  -2.1156050989013359E-003
           4   2.4490036155151235E-004
           5   7.0809542899948118E-004
           6  -3.6413604441004137E-003
           7  -1.2439914314603026E-002
           8   1.6614183358360068E-003
           9   7.0798651153033184E-004
          10   1.1438873971939822E-003
          11  -1.2968323332184522E-002
          12   1.2794512477529980E-003
          13 -0.55216900489667475     
          14 -0.55216900310715555     
Sym=    10a
Ene=  -0.22350555177326026     
Spin= Alpha
Occup=     0.00000000
           1  -2.0269499153668112E-009
           2   8.2802952567557153E-002
           3   9.6480796790710296E-002
           4  0.90388464816737357     
           5   3.8180811187037912E-009
           6  -5.3527123140167193E-002
           7  -6.2369029171174727E-002
           8 -0.58430702952445979     
           9  -3.4187399509955860E-009
          10  -5.3520037897888881E-002
          11  -6.2360773744328753E-002
          12 -0.58422968768963013     
          13   3.6896454738381762E-003
          14  -3.6896464963686701E-003
Sym=    11a
Ene=  -0.22344773231082873     
Spin= Alpha
Occup=     0.00000000
           1   1.4969603474971551E-003
           2  -8.8749917632082564E-002
           3 -0.90253840224171367     
           4  0.10446728967155358     
           5  -1.7673933585555404E-004
           6   5.6891106669688864E-002
           7  0.58332554668648806     
           8  -6.7475938703342564E-002
           9  -1.7689422518048526E-004
          10   5.7812247701733509E-002
          11  0.58314834942281890     
          12  -6.7541408429199715E-002
          13  -8.0281150486122659E-003
          14  -8.0281269350234719E-003
Sym=    12a
Ene=   0.11905762255906967     
Spin= Alpha
Occup=     0.00000000
           1  -7.1000852805184521E-009
           2   5.4588378486707491E-004
           3   6.3605013208838557E-004
           4   5.9589569067774505E-003
           5   6.8158291519297559E-009
           6  -1.2114730526703722E-004
           7  -1.4115249149524592E-004
           8  -1.3223737027714024E-003
           9   6.8033143970382506E-010
          10  -1.2106429073878532E-004
          11  -1.4106067750714143E-004
          12  -1.3215924631720759E-003
          13  -1.1780003977528459     
          14   1.1780003984799143     
Sym=    13a
Ene=   0.31044493161650061     
Spin= Alpha
Occup=     0.00000000
           1  -1.2414267518738973     
           2   1.5308378147738436E-004
           3  -1.8860746743177563E-003
           4   1.8729352687780264E-004
           5  0.47974833072505163     
           6 -0.68372865253970294     
           7   7.3432829291659341E-002
           8   5.4796695839575880E-002
           9  0.48003879804740002     
          10  0.68400495058825816     
          11  -7.3746379181966665E-002
          12  -5.4788538459586457E-002
          13   2.0125273281677474E-003
          14   2.0125089075886701E-003
Sym=    14a
Ene=    1.3649680456454307     
Spin= Alpha
Occup=     0.00000000
           1  -4.9493181084009558E-004
           2  -1.5689525380853819     
           3  0.16883053377363685     
           4  0.12570740926390417     
           5  0.83605575736578008     
           6 -0.72995714010873047     
           7   7.7186047485011275E-002
           8   5.8630969179654421E-002
           9 -0.83560228194394637     
          10 -0.72929371464951398     
          11   7.9840006584694451E-002
          12   5.8286913288374008E-002
          13   3.5233573678567063E-007
          14   3.4125331678587915E-007
