 Entering Gaussian System
 *********************************************
 Gaussian 98:
 frequency output generated by the xtb code
 *********************************************
                         Standard orientation:
 --------------------------------------------------------------------
  Center     Atomic     Atomic              Coordinates (Angstroms)
  Number     Number      Type              X           Y           Z
 --------------------------------------------------------------------
    1          6             0        0.130610    1.327440   -0.153656
    2          8             0        1.264134    1.206815   -0.244620
    3          8             0       -1.002775    1.450752   -0.062991
    4          1             0       -0.160733   -1.951429    0.615437
    5          1             0       -0.231236   -2.033577   -0.154169
 --------------------------------------------------------------------
     1 basis functions        1 primitive gaussians
     1 alpha electrons        1 beta electrons

 Harmonic frequencies (cm**-1), IR intensities (KM/Mole),
 Raman scattering activities (A**4/amu), Raman depolarization ratios,
 reduced masses (AMU), force constants (mDyne/A) and normal coordinates:
                      1                      2                      3
                        a                      a                      a 
 Frequencies --   -44.7957                31.8706                53.3223
 Red. masses --     1.1162                 6.5351                 1.0191
 Frc consts  --     0.0000                 0.0000                 0.0000
 IR Inten    --     0.0006                 0.0420                 0.0279
 Raman Activ --     0.0000                 0.0000                 0.0000
 Depolar     --     0.0000                 0.0000                 0.0000
 Atom AN      X      Y      Z        X      Y      Z        X      Y      Z
   1   6     0.00   0.00   0.00     0.09  -0.01  -0.01    -0.00  -0.00  -0.00
   2   8    -0.01  -0.01  -0.06     0.14   0.40  -0.06    -0.00  -0.00  -0.02
   3   8     0.01   0.01   0.06     0.06  -0.42   0.04    -0.00  -0.00  -0.02
   4   1    -0.70   0.07   0.06    -0.56   0.06   0.04    -0.06  -0.69   0.16
   5   1     0.70  -0.07  -0.06    -0.56   0.06   0.04     0.08   0.70   0.00
                      4                      5                      6
                        a                      a                      a 
 Frequencies --    77.6233               599.2179               600.7973
 Red. masses --     1.6144                13.1017                13.0959
 Frc consts  --     0.0000                 0.0000                 0.0000
 IR Inten    --     0.0073                 0.9666                 0.9446
 Raman Activ --     0.0000                 0.0000                 0.0000
 Depolar     --     0.0000                 0.0000                 0.0000
 Atom AN      X      Y      Z        X      Y      Z        X      Y      Z
   1   6    -0.01  -0.11   0.01     0.08   0.84  -0.10     0.08   0.09   0.84
   2   8    -0.01  -0.12   0.01    -0.03  -0.37   0.04    -0.03  -0.04  -0.37
   3   8    -0.01  -0.12   0.01    -0.04  -0.37   0.04    -0.03  -0.04  -0.37
   4   1     0.07   0.68  -0.08    -0.00   0.00  -0.00     0.00   0.01  -0.00
   5   1     0.07   0.68  -0.08    -0.00   0.00   0.00    -0.00  -0.01  -0.00
                      7                      8                      9
                        a                      a                      a 
 Frequencies --  1424.9235              2593.4571              3734.8163
 Red. masses --    15.9994                13.0992                 1.0079
 Frc consts  --     0.0000                 0.0000                 0.0000
 IR Inten    --     0.0060                 3.7417                 0.0037
 Raman Activ --     0.0000                 0.0000                 0.0000
 Depolar     --     0.0000                 0.0000                 0.0000
 Atom AN      X      Y      Z        X      Y      Z        X      Y      Z
   1   6     0.00  -0.00   0.00     0.85  -0.09  -0.07    -0.00  -0.00   0.00
   2   8     0.70  -0.07  -0.06    -0.37   0.04   0.03     0.00   0.00  -0.00
   3   8    -0.70   0.08   0.06    -0.37   0.04   0.03     0.00   0.00  -0.00
   4   1    -0.00  -0.00   0.00    -0.00   0.00   0.00    -0.06  -0.07  -0.70
   5   1    -0.00  -0.00   0.00    -0.00   0.00   0.00     0.06   0.07   0.70
