$hessian                                                                        
        2.1856641351  -0.2224310282  -0.1655654116  -1.0935026277   0.1100990367
        0.0829689270  -1.0920827181   0.1123158215   0.0826024491  -0.0000320867
        0.0000423716   0.0000352324  -0.0000467026  -0.0000262016  -0.0000411968
       -0.2224310282   0.1425384580   0.0179004776   0.1102830379  -0.0710280175
       -0.0088834938   0.1121680334  -0.0715803117  -0.0089979510   0.0000343719
        0.0001150962   0.0004108382  -0.0000544150  -0.0000452250  -0.0004298710
       -0.1655654116   0.0179004776   0.1325993813   0.0829510967  -0.0088668542
       -0.0662582394   0.0826163877  -0.0090110842  -0.0662182729   0.0000448347
        0.0003092565  -0.0001500224  -0.0000469074  -0.0003317956   0.0000271534
       -1.0935026277   0.1102830379   0.0829510967   1.1509266510  -0.1194828738
       -0.0899576767  -0.0574223475   0.0092513091   0.0069954120  -0.0000041730
       -0.0000417046  -0.0000107570   0.0000024973  -0.0000097686   0.0000219251
        0.1100990367  -0.0710280175  -0.0088668542  -0.1194828738   0.0425840032
        0.0095773870   0.0094616366   0.0286838677  -0.0007498080  -0.0000588933
       -0.0001548865  -0.0001502834  -0.0000189062  -0.0000849669   0.0001895586
        0.0829689270  -0.0088834938  -0.0662582394  -0.0899576767   0.0095773870
        0.0369849077   0.0069746999  -0.0007308511   0.0292173198  -0.0000285066
       -0.0001347531   0.0000676579   0.0000425565   0.0001717110  -0.0000116460
       -1.0920827181   0.1121680334   0.0826163877  -0.0574223475   0.0094616366
        0.0069746999   1.1494766822  -0.1216278504  -0.0895943426   0.0000109803
       -0.0000172761  -0.0000128438   0.0000174032   0.0000154565   0.0000160988
        0.1123158215  -0.0715803117  -0.0090110842   0.0092513091   0.0286838677
       -0.0007308511  -0.1216278504   0.0431570126   0.0097131569   0.0000135597
       -0.0001653556  -0.0001544780   0.0000471602  -0.0000952130   0.0001832563
        0.0826024491  -0.0089979510  -0.0662182729   0.0069954120  -0.0007498080
        0.0292173198  -0.0895943426   0.0097131569   0.0369430950  -0.0000117513
       -0.0001385821   0.0000667343   0.0000082328   0.0001731841  -0.0000088763
       -0.0000320867   0.0000343719   0.0000448347  -0.0000041730  -0.0000588933
       -0.0000285066   0.0000109803   0.0000135597  -0.0000117513   0.0021645795
        0.0025644432   0.0238937016  -0.0021393001  -0.0025534814  -0.0238982784
        0.0000423716   0.0001150962   0.0003092565  -0.0000417046  -0.0001548865
       -0.0001347531  -0.0000172761  -0.0001653556  -0.0001385821   0.0025644432
        0.0031222594   0.0277791783  -0.0025478341  -0.0029171136  -0.0278150995
        0.0000352324   0.0004108382  -0.0001500224  -0.0000107570  -0.0001502834
        0.0000676579  -0.0000128438  -0.0001544780   0.0000667343   0.0238937016
        0.0277791783   0.2608853324  -0.0239053332  -0.0278852551  -0.2608697023
       -0.0000467026  -0.0000544150  -0.0000469074   0.0000024973  -0.0000189062
        0.0000425565   0.0000174032   0.0000471602   0.0000082328  -0.0021393001
       -0.0025478341  -0.0239053332   0.0021661023   0.0025739950   0.0239014513
       -0.0000262016  -0.0000452250  -0.0003317956  -0.0000097686  -0.0000849669
        0.0001717110   0.0000154565  -0.0000952130   0.0001731841  -0.0025534814
       -0.0029171136  -0.0278852551   0.0025739950   0.0031425186   0.0278721556
       -0.0000411968  -0.0004298710   0.0000271534   0.0000219251   0.0001895586
       -0.0000116460   0.0000160988   0.0001832563  -0.0000088763  -0.0238982784
       -0.0278150995  -0.2608697023   0.0239014513   0.0278721556   0.2608630711
