4
 energy: -8.894955932060 gnorm: 0.258196969910 xtb: 6.2.2 (9d81278992624c895f80dd42a50cac0aa55982e2)
C         1.45824300000000   -0.02027000000000   -0.33267500000000
C         0.23142800000000   -0.02322500000000    0.55451300000000
C        -0.85796300000000   -0.71255600000000   -0.12553900000000
N        -0.83170800000000    0.75605000000000   -0.09629900000000
4
 energy: -8.959776216927 gnorm: 0.170940463325 xtb: 6.2.2 (9d81278992624c895f80dd42a50cac0aa55982e2)
C         1.46755339160439   -0.02455355037196   -0.25723291368019
C         0.28853501740486   -0.00677549584758    0.42651062712363
C        -0.89772000352805   -0.67364989206067   -0.10470196129226
N        -0.85836840548120    0.70497793828020   -0.06457575215118
4
 energy: -8.978483808325 gnorm: 0.221906631403 xtb: 6.2.2 (9d81278992624c895f80dd42a50cac0aa55982e2)
C         1.46000712487266   -0.03370569084924   -0.15710101029703
C         0.38155096953352    0.03076171343948    0.27133112911943
C        -0.95476453686794   -0.60509343918560   -0.09203370163182
N        -0.88679355753824    0.60803641659536   -0.02219641719058
4
 energy: -8.992464213351 gnorm: 0.077582785859 xtb: 6.2.2 (9d81278992624c895f80dd42a50cac0aa55982e2)
C         1.60344045911232   -0.05219540051191   -0.14828744940062
C         0.36505732621496    0.05163494744274    0.21218489179130
C        -1.00828104053374   -0.61450188973529   -0.07772158345625
N        -0.96021674479355    0.61506134280445    0.01382414106557
4
 energy: -8.995499091618 gnorm: 0.032046399285 xtb: 6.2.2 (9d81278992624c895f80dd42a50cac0aa55982e2)
C         1.57142936868446   -0.03247937244725   -0.14759285662414
C         0.36271693907646    0.03745525922713    0.21660360329217
C        -1.01090127962561   -0.63160158839021   -0.07131680624640
N        -0.92324502813531    0.62662470161034    0.00230605957837
4
 energy: -8.996533402641 gnorm: 0.012959681141 xtb: 6.2.2 (9d81278992624c895f80dd42a50cac0aa55982e2)
C         1.56703849467117   -0.02569067456074   -0.13446506573484
C         0.36728001208467    0.04001277350720    0.19258367815437
C        -1.02341641115507   -0.63037747240929   -0.06552711319201
N        -0.91090209560076    0.61605437346284    0.00740850077247
4
 energy: -8.996875492040 gnorm: 0.008160162566 xtb: 6.2.2 (9d81278992624c895f80dd42a50cac0aa55982e2)
C         1.57764550101222   -0.02709175303041   -0.12301889331273
C         0.37005694878671    0.04731483657369    0.16764264875496
C        -1.03361219778555   -0.63115750788828   -0.06182035434702
N        -0.91409025201339    0.61093342434500    0.01719659890478
4
 energy: -8.996976268611 gnorm: 0.003876712044 xtb: 6.2.2 (9d81278992624c895f80dd42a50cac0aa55982e2)
C         1.58315707667871   -0.02900124084418   -0.11639188853044
C         0.36924396797739    0.05369006647079    0.15180225387313
C        -1.03777479231685   -0.63355315137563   -0.06009840472804
N        -0.91462625233925    0.60886332574902    0.02468803938535
4
 energy: -8.996999008122 gnorm: 0.002418939374 xtb: 6.2.2 (9d81278992624c895f80dd42a50cac0aa55982e2)
C         1.58257601511608   -0.03175676224185   -0.11596266955403
C         0.36720256616059    0.05737248426448    0.14964556738435
C        -1.03477599271203   -0.63480800101411   -0.06128126250657
N        -0.91500258856464    0.60919127899149    0.02759836467625
4
 energy: -8.997018470677 gnorm: 0.000814109020 xtb: 6.2.2 (9d81278992624c895f80dd42a50cac0aa55982e2)
C         1.58015863735787   -0.03736699128646   -0.11734137661498
C         0.36341507296303    0.06294387804932    0.15053711231673
C        -1.02680423875643   -0.63651404105060   -0.06443144632363
N        -0.91676947156447    0.61093615428774    0.03123571062187
4
 energy: -8.997020055312 gnorm: 0.000456627948 xtb: 6.2.2 (9d81278992624c895f80dd42a50cac0aa55982e2)
C         1.57888180578789   -0.03887262725031   -0.11864678900753
C         0.36207450538252    0.06364054204064    0.15269844347899
C        -1.02357990062628   -0.63681121773046   -0.06544522165283
N        -0.91737641054412    0.61204230294014    0.03139356718137
