$hessian                                                                        
        0.5596110594  -0.0462197461  -0.1221251267  -0.4037418274   0.0453101091
        0.1389360555  -0.0604018720   0.0942841053  -0.0000001760  -0.0954673599
       -0.0933744683  -0.0168107528
       -0.0462197461   0.0141732756   0.0094235869   0.0282025584  -0.0174650512
       -0.0101433698   0.0002202418  -0.0123312522   0.0019855993   0.0177969459
        0.0156230278  -0.0012658163
       -0.1221251267   0.0094235869   0.0401291419   0.0905388929  -0.0065727420
       -0.0558340594   0.0093162472  -0.0291272126   0.0031143524   0.0222699866
        0.0262763677   0.0125905651
       -0.4037418274   0.0282025584   0.0905388929   0.5730432465  -0.0703235097
       -0.0734274737  -0.0512241531  -0.3021486296  -0.0281561973  -0.1180772660
        0.3442695809   0.0110447781
        0.0453101091  -0.0174650512  -0.0065727420  -0.0703235097   0.0637855621
        0.0021154261  -0.0213031725   0.0219962984  -0.0040914062   0.0463165730
       -0.0683168093   0.0085487222
        0.1389360555  -0.0101433698  -0.0558340594  -0.0734274737   0.0021154261
        0.0864937625  -0.0211124652   0.0111943205  -0.0094362620  -0.0443961166
       -0.0031663768  -0.0212234411
       -0.0604018720   0.0002202418   0.0093162472  -0.0512241531  -0.0213031725
       -0.0211124652   0.0868210392   0.1347435452   0.0169589600   0.0248049859
       -0.1136606145  -0.0051627420
        0.0942841053  -0.0123312522  -0.0291272126  -0.3021486296   0.0219962984
        0.0111943205   0.1347435452   0.5772268539   0.0514061131   0.0731209791
       -0.5868919001  -0.0334732210
       -0.0000001760   0.0019855993   0.0031143524  -0.0281561973  -0.0040914062
       -0.0094362620   0.0169589600   0.0514061131   0.0071424786   0.0111974133
       -0.0493003062  -0.0008205690
       -0.0954673599   0.0177969459   0.0222699866  -0.1180772660   0.0463165730
       -0.0443961166   0.0248049859   0.0731209791   0.0111974133   0.1887396400
       -0.1372344980   0.0109287167
       -0.0933744683   0.0156230278   0.0262763677   0.3442695809  -0.0683168093
       -0.0031663768  -0.1136606145  -0.5868919001  -0.0493003062  -0.1372344980
        0.6395856816   0.0261903152
       -0.0168107528  -0.0012658163   0.0125905651   0.0110447781   0.0085487222
       -0.0212234411  -0.0051627420  -0.0334732210  -0.0008205690   0.0109287167
        0.0261903152   0.0094534449
