5
 energy: -7.761592061511 gnorm: 0.039933273776 xtb: 6.2.2 (9d81278992624c895f80dd42a50cac0aa55982e2)
N        -0.00321100000000    0.10289900000000    0.01231800000000
C         1.19764500000000   -0.70712600000000   -0.07378000000000
C        -1.15133600000000   -0.77682800000000   -0.10385900000000
H        -0.01365200000000    0.79302700000000   -0.77153600000000
H        -0.02944500000000    0.58802800000000    0.93685700000000
5
 energy: -7.771094672136 gnorm: 0.034082592825 xtb: 6.2.2 (9d81278992624c895f80dd42a50cac0aa55982e2)
N        -0.00455169789238    0.14586198593440    0.01746073999652
C         1.12460936673233   -0.76905805121194   -0.08188672042573
C        -1.07457374907842   -0.83431505490179   -0.11004750572630
H        -0.01487112681079    0.83091503355433   -0.76412652647581
H        -0.03061179295074    0.62659608662499    0.93860001263133
5
 energy: -7.795156548830 gnorm: 0.055907743168 xtb: 6.2.2 (9d81278992624c895f80dd42a50cac0aa55982e2)
N        -0.00841915465050    0.26979508974642    0.03229593673207
C         0.89318549077489   -0.93659517418390   -0.10412977633322
C        -0.83313137550034   -0.98782072166123   -0.12623538992737
H        -0.01797241973051    0.92913456674553   -0.74953553602694
H        -0.03366154089354    0.72548623935318    0.94760476555547
5
 energy: -7.692795415914 gnorm: 0.321824586390 xtb: 6.2.2 (9d81278992624c895f80dd42a50cac0aa55982e2)
N        -0.01226580756998    0.39306116446963    0.04705146041339
C         0.62940273171015   -1.09386836850661   -0.12544033210167
C        -0.56003002287964   -1.12916287716926   -0.14067103569009
H        -0.02072033568418    1.01665361283936   -0.73774408338728
H        -0.03638556557635    0.81331646836688    0.95680399076564
5
 energy: -7.758148495605 gnorm: 0.231697752842 xtb: 6.2.2 (9d81278992624c895f80dd42a50cac0aa55982e2)
N        -0.01171934108074    0.37554857650694    0.04495550382050
C         0.70278049211695   -1.09822083636968   -0.12528419829847
C        -0.63300059993675   -1.13785797056688   -0.14238890039499
H        -0.02113491900211    1.03274188654600   -0.74264833019740
H        -0.03692463209735    0.82778834388361    0.96536592507035
5
 energy: -7.720079625060 gnorm: 0.154818208937 xtb: 6.2.2 (9d81278992624c895f80dd42a50cac0aa55982e2)
N        -0.00909351608664    0.29139649024249    0.03488387840377
C         1.06645574060405   -1.08206311704008   -0.11998332564326
C        -0.99701039115015   -1.14329307943469   -0.14640608481115
H        -0.02202415054114    1.07278555675103   -0.76599036511838
H        -0.03832668282613    0.86117414948125    0.99749589716902
5
 energy: -7.749009725542 gnorm: 0.151777459545 xtb: 6.2.2 (9d81278992624c895f80dd42a50cac0aa55982e2)
N        -0.01142168479448    0.36599756127664    0.04381328970780
C         0.97676073087435   -1.05997279881858   -0.11816241357115
C        -0.90885873254375   -1.11592552897832   -0.14230780797822
H        -0.02031536670329    1.00780784971192   -0.74885586530583
H        -0.03616394683282    0.80209291680834    0.96551279714740
5
 energy: -7.777625531444 gnorm: 0.137366699815 xtb: 6.2.2 (9d81278992624c895f80dd42a50cac0aa55982e2)
N        -0.01242815461054    0.39826528291261    0.04767386596614
C         0.77124978155606   -1.07001999875223   -0.12126742504680
C        -0.70310122108528   -1.11376838012773   -0.14014641517889
H        -0.02017036580741    0.99256943817415   -0.72490003829088
H        -0.03554904005284    0.79295365779321    0.93864001255043
5
 energy: -7.781422548864 gnorm: 0.104193122212 xtb: 6.2.2 (9d81278992624c895f80dd42a50cac0aa55982e2)
N        -0.01136473203108    0.36419199246598    0.04359607160938
C         0.81591488536992   -1.07520958871194   -0.12147689937724
C        -0.74736011798700   -1.12159659062029   -0.14149455618562
H        -0.02065805145892    1.01932399201775   -0.74881745860295
H        -0.03653098389292    0.81329019484850    0.96819284255643
5
 energy: -7.782938473182 gnorm: 0.088056638627 xtb: 6.2.2 (9d81278992624c895f80dd42a50cac0aa55982e2)
N        -0.01108805993757    0.35533216256866    0.04253560881924
C         0.78112034037389   -1.07998812266938   -0.12237183469602
C        -0.71233185499046   -1.12430297772917   -0.14149536768694
H        -0.02088227003667    1.02789878088013   -0.75119091066472
H        -0.03681715540920    0.82106015694975    0.97252250422844
5
 energy: -7.783905603227 gnorm: 0.089507999096 xtb: 6.2.2 (9d81278992624c895f80dd42a50cac0aa55982e2)
N        -0.01117497111747    0.35811823494742    0.04286916508513
C         0.78678437091020   -1.07637093773999   -0.12188575144372
C        -0.71821085169453   -1.12102817760472   -0.14115707205021
H        -0.02080687127836    1.02207844483274   -0.74359630632981
H        -0.03659067681983    0.81720243556455    0.96376996473861
5
 energy: -7.786296839610 gnorm: 0.094435508733 xtb: 6.2.2 (9d81278992624c895f80dd42a50cac0aa55982e2)
N        -0.01111998265439    0.35634351023300    0.04265692742215
C         0.79299257340951   -1.06536427061844   -0.12050842045448
C        -0.72509391490799   -1.11041024250099   -0.13994738575781
H        -0.02066694036916    1.00994483027311   -0.72638780730728
H        -0.03611073547797    0.80948617261333    0.94418668609742
5
 energy: -7.790797227849 gnorm: 0.097888425421 xtb: 6.2.2 (9d81278992624c895f80dd42a50cac0aa55982e2)
N        -0.01060918802087    0.33996864915996    0.04069735075108
C         0.80288360832933   -1.04122520019362   -0.11752148685740
C        -0.73647146381709   -1.08690195319652   -0.13723271290358
H        -0.02037163955568    0.99180653538976   -0.70742053321429
H        -0.03543031693569    0.79635196884041    0.92147738222419
5
 energy: -7.798297273140 gnorm: 0.073084941373 xtb: 6.2.2 (9d81278992624c895f80dd42a50cac0aa55982e2)
N        -0.00922135761074    0.29548964454838    0.03537413706695
C         0.81575549562162   -0.99019191418440   -0.11127981230331
C        -0.75250085466242   -1.03672532197039   -0.13136093923738
H        -0.01964795914065    0.96134678744038   -0.69337336927465
H        -0.03438432420780    0.77008080416603    0.90063998374839
5
 energy: -7.801496415187 gnorm: 0.027710511327 xtb: 6.2.2 (9d81278992624c895f80dd42a50cac0aa55982e2)
N        -0.00832894130253    0.26689465169680    0.03195131136745
C         0.81715019082034   -0.95754127949707   -0.10734855691741
C        -0.75592853633692   -1.00421727732637   -0.12749138672417
H        -0.01895559116254    0.94465084517541   -0.70877204728822
H        -0.03393612201834    0.75021305995123    0.91166067956236
5
 energy: -7.802331832143 gnorm: 0.008675596247 xtb: 6.2.2 (9d81278992624c895f80dd42a50cac0aa55982e2)
N        -0.00844485802069    0.27063543426445    0.03239827644318
C         0.81101272298506   -0.95535610774322   -0.10714202491182
C        -0.74993935916163   -1.00167266713016   -0.12712969993231
H        -0.01862655408787    0.94297450927559   -0.73059319747325
H        -0.03400095171487    0.74341883133334    0.93246664587421
5
 energy: -7.802453279047 gnorm: 0.000733473731 xtb: 6.2.2 (9d81278992624c895f80dd42a50cac0aa55982e2)
N        -0.00860195833955    0.27563625281416    0.03299606665283
C         0.80518755090004   -0.95664224002184   -0.10734937512016
C        -0.74404547209916   -1.00261246229986   -0.12718723570784
H        -0.01849008601632    0.94278698227366   -0.74075072194790
H        -0.03404903444501    0.74083146723388    0.94229126612307
5
 energy: -7.802454041487 gnorm: 0.000159737018 xtb: 6.2.2 (9d81278992624c895f80dd42a50cac0aa55982e2)
N        -0.00860024285429    0.27553194841720    0.03298322013193
C         0.80443218868943   -0.95700426751359   -0.10739949410346
C        -0.74326882089320   -1.00292967538345   -0.12721785962194
H        -0.01850584312270    0.94312441280097   -0.74024810785086
H        -0.03405628181923    0.74127758167887    0.94188224144432
