      -----------------------------------------------------------      
     |                   =====================                   |     
     |                           x T B                           |     
     |                   =====================                   |     
     |                         S. Grimme                         |     
     |          Mulliken Center for Theoretical Chemistry        |     
     |                    University of Bonn                     |     
      -----------------------------------------------------------      

   * xtb version 6.2.2 (9d81278992624c895f80dd42a50cac0aa55982e2) compiled by '@Darwin' on 04/03/2020

   xtb is free software: you can redistribute it and/or modify it under
   the terms of the GNU Lesser General Public License as published by
   the Free Software Foundation, either version 3 of the License, or
   (at your option) any later version.
   
   xtb is distributed in the hope that it will be useful,
   but WITHOUT ANY WARRANTY; without even the implied warranty of
   MERCHANTABILITY or FITNESS FOR A PARTICULAR PURPOSE.  See the
   GNU Lesser General Public License for more details.
   
   Cite this work as:
   * S. Grimme, C. Bannwarth, P. Shushkov, J. Chem. Theory Comput., 2017,
     13, 1989-2009. DOI: 10.1021/acs.jctc.7b00118
   * C. Bannwarth, S. Ehlert and S. Grimme., J. Chem. Theory Comput., 2019,
     15, 1652-1671. DOI: 10.1021/acs.jctc.8b01176
   * P. Pracht, E. Caldeweyher, S. Ehlert, S. Grimme, ChemRxiv, 2019, preprint.
     DOI: 10.26434/chemrxiv.8326202.v1
   
   for DFT-D4:
   * E. Caldeweyher, C. Bannwarth and S. Grimme, J. Chem. Phys., 2017,
     147, 034112. DOI: 10.1063/1.4993215
   * E. Caldeweyher, S. Ehlert, A. Hansen, H. Neugebauer, S. Spicher,
     C. Bannwarth and S. Grimme, J. Chem. Phys., 2019, 150, 154122.
     DOI: 10.1063/1.5090222
   
   for sTDA-xTB:
   * S. Grimme and C. Bannwarth, J. Chem. Phys., 2016, 145, 054103.
     DOI: 10.1063/1.4959605
   
   in the mass-spec context:
   * V. Asgeirsson, C. Bauer and S. Grimme, Chem. Sci., 2017, 8, 4879.
     DOI: 10.1039/c7sc00601b
   
   for metadynamics refer to:
   * S. Grimme, J. Chem. Theory Comput., 2019, 155, 2847-2862
     DOI: 10.1021/acs.jctc.9b00143
   
   with help from (in alphabetical order)
   C. Bannwarth, F. Bohle, G. Brandenburg, E. Caldeweyher, M. Checinski,
   S. Dohm, S. Ehlert, S. Ehrlich, F. März, H. Neugebauer, J. Pisarek,
   P. Pracht, P. Shushkov, and S. Spicher.
   
 * started run on 2020/05/12 at 11:44:46.858     

           -------------------------------------------------
          |                Calculation Setup                |
           -------------------------------------------------

          program call               : xtb --input H2C2N1_6_S_3.input H2C2N1_6_S_3.xyz --ohess --molden --namespace H2C2N1_6_S_3 output.out
          calculation namespace      : H2C2N1_6_S_3
          coordinate file            : H2C2N1_6_S_3.xyz
          number of atoms            :                     5
          number of electrons        :                    15
          charge                     :                     0
          spin                       :                   1.5
          first test random number   :      0.22925498250945

   ID    Z sym.   atoms
    1    7 N      1
    2    6 C      2, 3
    3    1 H      4, 5

           -------------------------------------------------
          |                 G F N 2 - x T B                 |
           -------------------------------------------------

        Reference                      10.1021/acs.jctc.8b01176
      * Hamiltonian:
        H0-scaling (s, p, d)           1.850000    2.230000    2.230000
        zeta-weighting                 0.500000
      * Dispersion:
        s8                             2.700000
        a1                             0.520000
        a2                             5.000000
        s9                             5.000000
      * Repulsion:
        kExp                           1.500000    1.000000
        rExp                           1.000000
      * Coulomb:
        alpha                          2.000000
        third order                    shell-resolved
        anisotropic                    true
        a3                             3.000000
        a5                             4.000000
        cn-shift                       1.200000
        cn-exp                         4.000000
        max-rad                        5.000000


          ...................................................
          :                      SETUP                      :
          :.................................................:
          :  # basis functions                  14          :
          :  # atomic orbitals                  14          :
          :  # shells                            8          :
          :  # electrons                        15          :
          :  max. iterations                   250          :
          :  Hamiltonian                  GFN2-xTB          :
          :  restarted?                      false          :
          :  GBSA solvation                  false          :
          :  PC potential                    false          :
          :  electronic temp.          300.0000000     K    :
          :  accuracy                    1.0000000          :
          :  -> integral cutoff          0.2500000E+02      :
          :  -> integral neglect         0.1000000E-07      :
          :  -> SCF convergence          0.1000000E-05 Eh   :
          :  -> wf. convergence          0.1000000E-03 e    :
          :  Broyden damping             0.4000000          :
          ...................................................

 iter      E             dE          RMSdq      gap      omega  full diag
   1     -7.7456169 -0.774562E+01  0.753E+00    0.31       0.0  T
   2     -7.8093200 -0.637031E-01  0.474E+00    0.47       1.0  T
   3     -7.8113064 -0.198636E-02  0.238E+00    0.43       1.0  T
   4     -7.8120660 -0.759624E-03  0.449E-01    0.39       1.0  T
   5     -7.8120862 -0.202109E-04  0.267E-01    0.41       1.0  T
   6     -7.8122324 -0.146145E-03  0.354E-02    0.40       1.3  T
   7     -7.8122206  0.117321E-04  0.477E-02    0.40       1.0  T
   8     -7.8122325 -0.118768E-04  0.234E-02    0.40       1.9  T
   9     -7.8122332 -0.665191E-06  0.247E-03    0.40      18.1  T
  10     -7.8122332 -0.190583E-07  0.498E-04    0.40      89.8  T
  11     -7.8122332  0.533378E-10  0.325E-04    0.40     137.6  T

   *** convergence criteria satisfied after 11 iterations ***

         #    Occupation            Energy/Eh            Energy/eV
      -------------------------------------------------------------
         1        2.0000           -0.7032040             -19.1352
       ...           ...                  ...                  ...
         3        2.0000           -0.6327742             -17.2187
         4        2.0000           -0.6103018             -16.6072
         5        2.0000           -0.4746319             -12.9154
         6        2.0000           -0.4548664             -12.3775
         7        1.0000           -0.3387535              -9.2180
         8        1.0000           -0.3255050              -8.8574
         9        0.9996           -0.3144648              -8.5570 (HOMO)
        10        0.0004           -0.2996599              -8.1542 (LUMO)
        11                         -0.0529971              -1.4421
        12                          0.0889575               2.4207
        13                          0.0899012               2.4463
        14                          0.1005606               2.7364
      -------------------------------------------------------------
                  HL-Gap            0.0148049 Eh            0.4029 eV
             Fermi-level           -0.3519362 Eh           -9.5767 eV

 SCC (total)                   0 d,  0 h,  0 min,  0.002 sec
 SCC setup                      ...        0 min,  0.000 sec (  3.364%)
 Dispersion                     ...        0 min,  0.000 sec (  0.572%)
 integral evaluation            ...        0 min,  0.001 sec ( 27.245%)
 zeroth order Hamiltonian       ...        0 min,  0.000 sec (  0.601%)
 iterations                     ...        0 min,  0.001 sec ( 38.268%)
 molecular gradient             ...        0 min,  0.001 sec ( 27.652%)
 printout                       ...        0 min,  0.000 sec (  1.939%)

         :::::::::::::::::::::::::::::::::::::::::::::::::::::
         ::                     SUMMARY                     ::
         :::::::::::::::::::::::::::::::::::::::::::::::::::::
         :: total energy              -7.761592057597 Eh    ::
         :: gradient norm              0.039931896114 Eh/a0 ::
         :: HOMO-LUMO gap              0.402862153420 eV    ::
         ::.................................................::
         :: SCC energy                -7.812233202993 Eh    ::
         :: -> isotropic ES           -0.020625023166 Eh    ::
         :: -> anisotropic ES          0.002025001073 Eh    ::
         :: -> anisotropic XC          0.002524363519 Eh    ::
         :: -> dispersion             -0.001612648753 Eh    ::
         :: repulsion energy           0.050641101595 Eh    ::
         :: add. restraining           0.000000000000 Eh    ::
         :::::::::::::::::::::::::::::::::::::::::::::::::::::

      ----------------------------------------------------------- 
     |                   =====================                   |
     |                        A N C O P T                        |
     |                   =====================                   |
     |               Approximate Normal Coordinate               |
     |                Rational Function Optimizer                |
      ----------------------------------------------------------- 

          ...................................................
          :                      SETUP                      :
          :.................................................:
          :   optimization level            normal          :
          :   max. optcycles                   200          :
          :   ANC micro-cycles                  20          :
          :   degrees of freedom                 9          :
          :.................................................:
          :   RF solver                   davidson          :
          :   write xtbopt.log                true          :
          :   linear?                        false          :
          :   energy convergence         0.5000000E-05 Eh   :
          :   grad. convergence          0.1000000E-02 Eh/α :
          :   maximium RF displ.         1.0000000          :
          :   Hlow (freq-cutoff)         0.1000000E-01      :
          :   Hmax (freq-cutoff)         5.0000000          :
          :   S6 in model hess.         20.0000000          :
          ...................................................

generating ANC from model Hessian ...
Using Lindh-Hessian (1995)
 Shifting diagonal of input Hessian by    0.0000000000000000     
 Lowest  eigenvalues of input Hessian
   -0.000000   -0.000000    0.000000    0.000000    0.000000    0.000000
    0.104447    0.122847    0.138498    0.178739    0.182411    0.521600
    1.269422    1.285882    1.287211
 Highest eigenvalues
    0.178739    0.182411    0.521600    1.269422    1.285882    1.287211


........................................................................
.............................. CYCLE    1 ..............................
........................................................................
   1     -7.8122332 -0.781223E+01  0.135E-05    0.40       0.0  T
   2     -7.8122332 -0.559552E-13  0.863E-06    0.40    5183.8  T
   3     -7.8122332  0.408562E-13  0.337E-06    0.40   13261.1  T
     SCC iter.                  ...        0 min,  0.000 sec
     gradient                   ...        0 min,  0.001 sec
 * total energy  :    -7.7615921 Eh     change       -0.3913958E-08 Eh
   gradient norm :     0.0399333 Eh/α   predicted     0.0000000E+00 (-100.00%)
   displ. norm   :     0.2886327 α      lambda       -0.1000494E-01
   maximum displ.:     0.2862347 α      in ANC's #1, #5, #6, ...

........................................................................
.............................. CYCLE    2 ..............................
........................................................................
   1     -7.8219153 -0.782192E+01  0.109E+00    1.15       0.0  T
   2     -7.8220952 -0.179855E-03  0.583E-01    1.15       1.0  T
   3     -7.8221295 -0.343543E-04  0.556E-02    1.14       1.0  T
   4     -7.8221301 -0.622377E-06  0.188E-02    1.14       2.4  T
   5     -7.8221301 -0.153562E-09  0.133E-03    1.14      33.6  T
   6     -7.8221301  0.503188E-08  0.147E-03    1.14      30.5  T
   7     -7.8221301 -0.107202E-07  0.305E-04    1.14     146.8  T
   8     -7.8221301 -0.693747E-10  0.746E-05    1.14     599.4  T
     SCC iter.                  ...        0 min,  0.000 sec
     gradient                   ...        0 min,  0.001 sec
 * total energy  :    -7.7710947 Eh     change       -0.9502611E-02 Eh
   gradient norm :     0.0340826 Eh/α   predicted    -0.5419224E-02 ( -42.97%)
   displ. norm   :     0.8442119 α      lambda       -0.2677688E-01
   maximum displ.:     0.8277692 α      in ANC's #1, #5, #6, ...

........................................................................
.............................. CYCLE    3 ..............................
........................................................................
   1     -7.8369399 -0.783694E+01  0.425E+00    3.33       0.0  T
   2     -7.8461171 -0.917719E-02  0.203E+00    3.44       1.0  T
   3     -7.8465355 -0.418351E-03  0.727E-01    3.40       1.0  T
   4     -7.8466589 -0.123458E-03  0.118E-01    3.41       1.0  T
   5     -7.8466624 -0.344467E-05  0.258E-02    3.40       1.7  T
   6     -7.8466630 -0.644763E-06  0.107E-02    3.41       4.2  T
   7     -7.8466633 -0.223104E-06  0.301E-03    3.41      14.9  T
   8     -7.8466633 -0.472483E-08  0.343E-04    3.41     130.4  T
   9     -7.8466633 -0.244589E-09  0.102E-04    3.41     440.3  T
     SCC iter.                  ...        0 min,  0.001 sec
     gradient                   ...        0 min,  0.001 sec
 * total energy  :    -7.7951565 Eh     change       -0.2406188E-01 Eh
   gradient norm :     0.0559077 Eh/α   predicted    -0.2293030E-01 (  -4.70%)
   displ. norm   :     0.8875279 α      lambda       -0.2670023E-01
   maximum displ.:     0.8521114 α      in ANC's #1, #5, #6, ...

........................................................................
.............................. CYCLE    4 ..............................
........................................................................
   1     -7.7362305 -0.773623E+01  0.103E+01    1.28       0.0  T
   2     -7.5888056  0.147425E+00  0.860E+00    0.92       1.0  T
   3     -7.7614883 -0.172683E+00  0.668E+00    0.90       1.0  T
   4     -7.8561768 -0.946886E-01  0.273E+00    0.10       1.0  T
   5     -7.8534450  0.273184E-02  0.284E+00    0.06       1.0  T
   6     -7.8567245 -0.327954E-02  0.242E+00    0.15       1.0  T
   7     -7.8528321  0.389245E-02  0.183E+00    0.27       1.0  T
   8     -7.8538490 -0.101696E-02  0.142E+00    0.24       1.0  T
   9     -7.8564692 -0.262023E-02  0.750E-01    0.16       1.0  T
  10     -7.8561515  0.317716E-03  0.824E-01    0.17       1.0  T
  11     -7.8572122 -0.106065E-02  0.185E-01    0.10       1.0  T
  12     -7.8572541 -0.418811E-04  0.366E-02    0.11       1.2  T
  13     -7.8572538  0.277144E-06  0.376E-02    0.11       1.2  T
  14     -7.8572553 -0.150966E-05  0.235E-02    0.11       1.9  T
  15     -7.8572561 -0.795320E-06  0.361E-03    0.11      12.4  T
  16     -7.8572561 -0.158055E-07  0.951E-04    0.11      47.0  T
  17     -7.8572561 -0.124394E-08  0.327E-04    0.11     136.7  T
     SCC iter.                  ...        0 min,  0.001 sec
     gradient                   ...        0 min,  0.001 sec
 * total energy  :    -7.6927954 Eh     change        0.1023611E+00 Eh
   gradient norm :     0.3218246 Eh/α   predicted    -0.2386606E-01 (-123.32%)
   displ. norm   :     0.2042653 α      lambda       -0.4744300E-01
   maximum displ.:     0.1498691 α      in ANC's #6, #1, #5, ...

........................................................................
.............................. CYCLE    5 ..............................
........................................................................
   1     -7.8401576 -0.784016E+01  0.510E+00    1.31       0.0  T
   2     -7.8428702 -0.271254E-02  0.302E+00    0.99       1.0  T
   3     -7.8428108  0.594206E-04  0.754E-01    1.08       1.0  T
   4     -7.8434985 -0.687700E-03  0.193E-01    0.98       1.0  T
   5     -7.8435172 -0.187774E-04  0.529E-02    1.00       1.0  T
   6     -7.8435181 -0.849622E-06  0.207E-02    1.00       2.2  T
   7     -7.8435187 -0.596987E-06  0.504E-03    1.00       8.9  T
   8     -7.8435187 -0.184229E-07  0.434E-04    1.00     102.9  T
   9     -7.8435187 -0.288808E-09  0.150E-04    1.00     297.6  T
     SCC iter.                  ...        0 min,  0.001 sec
     gradient                   ...        0 min,  0.001 sec
 * total energy  :    -7.7581485 Eh     change       -0.6535308E-01 Eh
   gradient norm :     0.2316978 Eh/α   predicted    -0.2471126E-01 ( -62.19%)
   displ. norm   :     0.9938335 α      lambda       -0.2162263E+00
   maximum displ.:     0.6515530 α      in ANC's #6, #1, #5, ...

........................................................................
.............................. CYCLE    6 ..............................
........................................................................
   1     -7.7318143 -0.773181E+01  0.557E+00    1.71       0.0  T
   2     -7.7349777 -0.316339E-02  0.310E+00    1.68       1.0  T
   3     -7.7339686  0.100910E-02  0.116E+00    1.73       1.0  T
   4     -7.7372340 -0.326538E-02  0.395E-01    1.69       1.0  T
   5     -7.7372584 -0.244287E-04  0.130E-01    1.69       1.0  T
   6     -7.7372788 -0.204139E-04  0.493E-02    1.70       1.0  T
   7     -7.7372852 -0.639904E-05  0.138E-02    1.69       3.2  T
   8     -7.7372854 -0.147692E-06  0.106E-02    1.69       4.2  T
   9     -7.7372859 -0.508675E-06  0.109E-03    1.69      41.0  T
  10     -7.7372859 -0.375904E-08  0.295E-04    1.69     151.5  T
  11     -7.7372859 -0.149933E-09  0.864E-06    1.69    5175.8  T
     SCC iter.                  ...        0 min,  0.001 sec
     gradient                   ...        0 min,  0.001 sec
 * total energy  :    -7.7200796 Eh     change        0.3806887E-01 Eh
   gradient norm :     0.1548182 Eh/α   predicted    -0.2148969E+00 (-664.50%)
   displ. norm   :     0.3367758 α      lambda       -0.3860558E-01
   maximum displ.:     0.2762210 α      in ANC's #6, #5, #8, ...

........................................................................
.............................. CYCLE    7 ..............................
........................................................................
   1     -7.7860509 -0.778605E+01  0.132E+00    2.00       0.0  T
   2     -7.7868038 -0.752900E-03  0.621E-01    2.06       1.0  T
   3     -7.7868942 -0.904177E-04  0.445E-01    2.01       1.0  T
   4     -7.7871199 -0.225749E-03  0.771E-02    2.03       1.0  T
   5     -7.7871234 -0.350863E-05  0.209E-02    2.03       2.1  T
   6     -7.7871234  0.203106E-07  0.778E-03    2.03       5.7  T
   7     -7.7871235 -0.135372E-06  0.148E-03    2.03      30.3  T
   8     -7.7871235 -0.574094E-09  0.155E-04    2.03     288.3  T
   9     -7.7871235 -0.217284E-10  0.628E-05    2.03     711.9  T
     SCC iter.                  ...        0 min,  0.001 sec
     gradient                   ...        0 min,  0.001 sec
 * total energy  :    -7.7490097 Eh     change       -0.2893010E-01 Eh
   gradient norm :     0.1517775 Eh/α   predicted    -0.2149198E-01 ( -25.71%)
   displ. norm   :     0.5585414 α      lambda       -0.4698991E-01
   maximum displ.:     0.3719047 α      in ANC's #6, #1, #5, ...

........................................................................
.............................. CYCLE    8 ..............................
........................................................................
   1     -7.8497003 -0.784970E+01  0.335E+00    2.14       0.0  T
   2     -7.8510257 -0.132538E-02  0.206E+00    2.18       1.0  T
   3     -7.8518156 -0.789970E-03  0.405E-01    2.16       1.0  T
   4     -7.8518485 -0.329140E-04  0.197E-01    2.19       1.0  T
   5     -7.8518650 -0.164996E-04  0.418E-02    2.18       1.1  T
   6     -7.8518659 -0.831723E-06  0.197E-02    2.19       2.3  T
   7     -7.8518667 -0.846705E-06  0.717E-03    2.18       6.2  T
   8     -7.8518668 -0.104068E-06  0.170E-03    2.18      26.4  T
   9     -7.8518668 -0.125761E-07  0.115E-04    2.18     388.8  T
  10     -7.8518668 -0.174971E-11  0.671E-05    2.18     666.0  T
     SCC iter.                  ...        0 min,  0.001 sec
     gradient                   ...        0 min,  0.001 sec
 * total energy  :    -7.7776255 Eh     change       -0.2861581E-01 Eh
   gradient norm :     0.1373667 Eh/α   predicted    -0.3082470E-01 (   7.72%)
   displ. norm   :     0.1668815 α      lambda       -0.1238929E-01
   maximum displ.:     0.1453950 α      in ANC's #6, #1, #8, ...

........................................................................
.............................. CYCLE    9 ..............................
........................................................................
   1     -7.8280411 -0.782804E+01  0.108E+00    2.43       0.0  T
   2     -7.8285048 -0.463708E-03  0.541E-01    2.37       1.0  T
   3     -7.8285534 -0.486643E-04  0.325E-01    2.40       1.0  T
   4     -7.8286204 -0.669922E-04  0.631E-02    2.39       1.0  T
   5     -7.8286217 -0.129768E-05  0.192E-02    2.39       2.3  T
   6     -7.8286218 -0.116903E-06  0.492E-03    2.39       9.1  T
   7     -7.8286219 -0.347741E-07  0.140E-03    2.39      32.0  T
   8     -7.8286219 -0.444413E-09  0.747E-05    2.39     598.7  T
   9     -7.8286219  0.514522E-11  0.540E-05    2.39     828.5  T
     SCC iter.                  ...        0 min,  0.001 sec
     gradient                   ...        0 min,  0.001 sec
 * total energy  :    -7.7814225 Eh     change       -0.3797017E-02 Eh
   gradient norm :     0.1041931 Eh/α   predicted    -0.6367163E-02 (  67.69%)
   displ. norm   :     0.0983149 α      lambda       -0.3748064E-02
   maximum displ.:     0.0719336 α      in ANC's #1, #8, #6, ...

........................................................................
.............................. CYCLE   10 ..............................
........................................................................
   1     -7.8339099 -0.783391E+01  0.607E-01    2.30       0.0  T
   2     -7.8339816 -0.716597E-04  0.389E-01    2.27       1.0  T
   3     -7.8339983 -0.167098E-04  0.121E-01    2.30       1.0  T
   4     -7.8340184 -0.201616E-04  0.582E-02    2.29       1.0  T
   5     -7.8340191 -0.673214E-06  0.777E-03    2.28       5.8  T
   6     -7.8340191 -0.754211E-08  0.180E-03    2.29      24.8  T
   7     -7.8340191 -0.910350E-08  0.262E-04    2.28     170.9  T
   8     -7.8340191 -0.280781E-09  0.114E-04    2.28     392.5  T
     SCC iter.                  ...        0 min,  0.000 sec
     gradient                   ...        0 min,  0.001 sec
 * total energy  :    -7.7829385 Eh     change       -0.1515924E-02 Eh
   gradient norm :     0.0880566 Eh/α   predicted    -0.1892147E-02 (  24.82%)
   displ. norm   :     0.0317217 α      lambda       -0.1192819E-02
   maximum displ.:     0.0187547 α      in ANC's #1, #8, #5, ...

........................................................................
.............................. CYCLE   11 ..............................
........................................................................
   1     -7.8365655 -0.783657E+01  0.110E-01    2.41       0.0  T
   2     -7.8365682 -0.274379E-05  0.666E-02    2.41       1.0  T
   3     -7.8365688 -0.581677E-06  0.219E-02    2.41       2.0  T
   4     -7.8365693 -0.511121E-06  0.101E-02    2.41       4.4  T
   5     -7.8365693 -0.271272E-07  0.251E-03    2.41      17.8  T
   6     -7.8365693 -0.168213E-08  0.497E-04    2.41      89.9  T
   7     -7.8365693 -0.412088E-10  0.958E-05    2.41     466.6  T
     SCC iter.                  ...        0 min,  0.000 sec
     gradient                   ...        0 min,  0.001 sec
 * total energy  :    -7.7839056 Eh     change       -0.9671300E-03 Eh
   gradient norm :     0.0895080 Eh/α   predicted    -0.5970102E-03 ( -38.27%)
   displ. norm   :     0.0658161 α      lambda       -0.3101809E-02
   maximum displ.:     0.0405661 α      in ANC's #6, #1, #5, ...

........................................................................
.............................. CYCLE   12 ..............................
........................................................................
   1     -7.8439244 -0.784392E+01  0.208E-01    2.55       0.0  T
   2     -7.8439536 -0.291909E-04  0.110E-01    2.53       1.0  T
   3     -7.8439567 -0.311625E-05  0.569E-02    2.54       1.0  T
   4     -7.8439582 -0.143354E-05  0.106E-02    2.53       4.2  T
   5     -7.8439582 -0.392935E-07  0.297E-03    2.53      15.0  T
   6     -7.8439582  0.348767E-08  0.124E-03    2.53      36.1  T
   7     -7.8439582 -0.613773E-08  0.541E-04    2.53      82.6  T
   8     -7.8439582 -0.297596E-09  0.170E-04    2.53     262.6  T
     SCC iter.                  ...        0 min,  0.000 sec
     gradient                   ...        0 min,  0.001 sec
 * total energy  :    -7.7862968 Eh     change       -0.2391236E-02 Eh
   gradient norm :     0.0944355 Eh/α   predicted    -0.1557622E-02 ( -34.86%)
   displ. norm   :     0.1039979 α      lambda       -0.5671813E-02
   maximum displ.:     0.0776105 α      in ANC's #1, #6, #5, ...

........................................................................
.............................. CYCLE   13 ..............................
........................................................................
   1     -7.8533555 -0.785336E+01  0.615E-01    2.86       0.0  T
   2     -7.8538591 -0.503663E-03  0.263E-01    2.80       1.0  T
   3     -7.8539082 -0.490322E-04  0.148E-01    2.82       1.0  T
   4     -7.8539118 -0.366233E-05  0.138E-02    2.81       3.2  T
   5     -7.8539119 -0.489701E-07  0.382E-03    2.81      11.7  T
   6     -7.8539119 -0.118139E-07  0.791E-04    2.81      56.6  T
   7     -7.8539119 -0.139666E-08  0.161E-04    2.81     277.4  T
     SCC iter.                  ...        0 min,  0.000 sec
     gradient                   ...        0 min,  0.001 sec
 * total energy  :    -7.7907972 Eh     change       -0.4500388E-02 Eh
   gradient norm :     0.0978884 Eh/α   predicted    -0.2866579E-02 ( -36.30%)
   displ. norm   :     0.1878154 α      lambda       -0.1086595E-01
   maximum displ.:     0.1530756 α      in ANC's #1, #6, #8, ...

........................................................................
.............................. CYCLE   14 ..............................
........................................................................
   1     -7.8631698 -0.786317E+01  0.149E+00    3.65       0.0  T
   2     -7.8663532 -0.318334E-02  0.560E-01    3.51       1.0  T
   3     -7.8665016 -0.148425E-03  0.313E-01    3.54       1.0  T
   4     -7.8665124 -0.108442E-04  0.361E-02    3.54       1.2  T
   5     -7.8665127 -0.255584E-06  0.137E-02    3.54       3.3  T
   6     -7.8665128 -0.127264E-06  0.552E-03    3.54       8.1  T
   7     -7.8665129 -0.504909E-07  0.195E-03    3.54      22.9  T
   8     -7.8665129 -0.132124E-07  0.621E-04    3.54      72.0  T
   9     -7.8665129 -0.356835E-09  0.671E-05    3.54     666.9  T
     SCC iter.                  ...        0 min,  0.001 sec
     gradient                   ...        0 min,  0.001 sec
 * total energy  :    -7.7982973 Eh     change       -0.7500045E-02 Eh
   gradient norm :     0.0730849 Eh/α   predicted    -0.5624617E-02 ( -25.01%)
   displ. norm   :     0.1199624 α      lambda       -0.5384708E-02
   maximum displ.:     0.0904677 α      in ANC's #1, #8, #5, ...

........................................................................
.............................. CYCLE   15 ..............................
........................................................................
   1     -7.8674617 -0.786746E+01  0.102E+00    4.10       0.0  T
   2     -7.8689060 -0.144422E-02  0.361E-01    4.02       1.0  T
   3     -7.8689413 -0.353717E-04  0.199E-01    4.04       1.0  T
   4     -7.8689471 -0.573477E-05  0.379E-02    4.04       1.2  T
   5     -7.8689474 -0.368354E-06  0.866E-03    4.04       5.2  T
   6     -7.8689475 -0.447965E-07  0.302E-03    4.04      14.8  T
   7     -7.8689475 -0.111068E-07  0.594E-04    4.04      75.2  T
   8     -7.8689475  0.157119E-09  0.284E-04    4.04     157.4  T
     SCC iter.                  ...        0 min,  0.000 sec
     gradient                   ...        0 min,  0.001 sec
 * total energy  :    -7.8014964 Eh     change       -0.3199142E-02 Eh
   gradient norm :     0.0277105 Eh/α   predicted    -0.2731100E-02 ( -14.63%)
   displ. norm   :     0.0614467 α      lambda       -0.1272721E-02
   maximum displ.:     0.0577813 α      in ANC's #5, #6, #8, ...

........................................................................
.............................. CYCLE   16 ..............................
........................................................................
   1     -7.8666951 -0.786670E+01  0.150E-01    4.08       0.0  T
   2     -7.8666999 -0.475977E-05  0.892E-02    4.08       1.0  T
   3     -7.8667011 -0.119084E-05  0.227E-02    4.08       2.0  T
   4     -7.8667013 -0.165079E-06  0.106E-02    4.08       4.2  T
   5     -7.8667013 -0.230442E-07  0.140E-03    4.08      31.8  T
   6     -7.8667013 -0.350830E-10  0.304E-04    4.08     147.0  T
   7     -7.8667013 -0.517817E-10  0.190E-04    4.08     235.0  T
     SCC iter.                  ...        0 min,  0.000 sec
     gradient                   ...        0 min,  0.001 sec
 * total energy  :    -7.8023318 Eh     change       -0.8354170E-03 Eh
   gradient norm :     0.0086756 Eh/α   predicted    -0.6387638E-03 ( -23.54%)
   displ. norm   :     0.0328993 α      lambda       -0.2375083E-03
   maximum displ.:     0.0304840 α      in ANC's #5, #1, #6, ...

........................................................................
.............................. CYCLE   17 ..............................
........................................................................
   1     -7.8659910 -0.786599E+01  0.148E-01    4.07       0.0  T
   2     -7.8659966 -0.557630E-05  0.802E-02    4.07       1.0  T
   3     -7.8659971 -0.532485E-06  0.247E-02    4.07       1.8  T
   4     -7.8659973 -0.145743E-06  0.691E-03    4.07       6.5  T
   5     -7.8659973 -0.118333E-07  0.975E-04    4.07      45.9  T
   6     -7.8659973  0.578267E-09  0.403E-04    4.07     111.0  T
     SCC iter.                  ...        0 min,  0.000 sec
     gradient                   ...        0 min,  0.001 sec
 * total energy  :    -7.8024533 Eh     change       -0.1214469E-03 Eh
   gradient norm :     0.0007335 Eh/α   predicted    -0.1188819E-03 (  -2.11%)
   displ. norm   :     0.0027728 α      lambda       -0.1161234E-05
   maximum displ.:     0.0023537 α      in ANC's #1, #6, #5, ...

........................................................................
.............................. CYCLE   18 ..............................
........................................................................
   1     -7.8661764 -0.786618E+01  0.156E-02    4.08       0.0  T
   2     -7.8661764 -0.358969E-07  0.896E-03    4.08       5.0  T
   3     -7.8661765 -0.133020E-07  0.219E-03    4.08      20.4  T
   4     -7.8661765 -0.133299E-08  0.114E-03    4.08      39.3  T
   5     -7.8661765  0.102510E-08  0.671E-04    4.08      66.6  T
   6     -7.8661765 -0.184731E-08  0.120E-04    4.08     373.8  T
     SCC iter.                  ...        0 min,  0.000 sec
     gradient                   ...        0 min,  0.001 sec
 * total energy  :    -7.8024540 Eh     change       -0.7624399E-06 Eh
   gradient norm :     0.0001597 Eh/α   predicted    -0.5804894E-06 ( -23.86%)
   displ. norm   :     0.0006946 α      lambda       -0.5386390E-07
   maximum displ.:     0.0006423 α      in ANC's #5, #6, #8, ...

   *** GEOMETRY OPTIMIZATION CONVERGED AFTER 18 ITERATIONS ***

------------------------------------------------------------------------
 total energy gain   :        -0.0408620 Eh      -25.6413 kcal/mol
 total RMSD          :         0.6057119 a0        0.3205 Å
 total power (kW/mol):        -5.9601736 (step)-2891.4066 (real)
------------------------------------------------------------------------

 ANCopt (total)                0 d,  0 h,  0 min,  0.037 sec
 optimizer setup                ...        0 min,  0.000 sec (  0.178%)
 model hessian                  ...        0 min,  0.000 sec (  0.258%)
 ANC generation                 ...        0 min,  0.000 sec (  0.143%)
 coordinate transformation      ...        0 min,  0.000 sec (  0.102%)
 single point calculation       ...        0 min,  0.035 sec ( 95.455%)
 optimization log               ...        0 min,  0.000 sec (  1.154%)
 hessian update                 ...        0 min,  0.000 sec (  0.115%)
 rational function              ...        0 min,  0.000 sec (  1.057%)

================
 final structure:
================
5
 xtb: 6.2.2 (9d81278992624c895f80dd42a50cac0aa55982e2)
N        -0.00860024285429    0.27553194841720    0.03298322013193
C         0.80443218868943   -0.95700426751359   -0.10739949410346
C        -0.74326882089320   -1.00292967538345   -0.12721785962194
H        -0.01850584312270    0.94312441280097   -0.74024810785086
H        -0.03405628181923    0.74127758167887    0.94188224144432

 Bond Distances (Angstroems)
 ---------------------------
N1-C2=1.4832         N1-C3=1.4832         N1-H4=1.0216         N1-H5=1.0216         C2-N1=1.4832         C2-C3=1.5485         
C3-N1=1.4832         C3-C2=1.5485         H4-N1=1.0216         H5-N1=1.0216         
 C  C  Rav=1.5485 sigma=0.0000  Rmin=1.5485  Rmax=1.5485     1
 N  H  Rav=1.0216 sigma=0.0000  Rmin=1.0216  Rmax=1.0216     2
 N  C  Rav=1.4832 sigma=0.0000  Rmin=1.4832  Rmax=1.4832     2

 selected bond angles (degree)
 --------------------
C3-N1-C2= 62.94                H4-N1-C2=118.47                H4-N1-C3=118.47                H5-N1-C2=118.47                
H5-N1-C3=118.47                H5-N1-H4=112.04                C3-C2-N1= 58.53                C2-C3-N1= 58.53                

 selected dihedral angles (degree)
 ---------------------------------
C3-C2-N1-H4=250.62            C3-C2-N1-H5=109.38            C2-C3-N1-H4=109.38            C2-C3-N1-H5=250.62            
           -------------------------------------------------
          |                Final Singlepoint                |
           -------------------------------------------------

          ...................................................
          :                      SETUP                      :
          :.................................................:
          :  # basis functions                  14          :
          :  # atomic orbitals                  14          :
          :  # shells                            8          :
          :  # electrons                        15          :
          :  max. iterations                   250          :
          :  Hamiltonian                  GFN2-xTB          :
          :  restarted?                      false          :
          :  GBSA solvation                  false          :
          :  PC potential                    false          :
          :  electronic temp.          300.0000000     K    :
          :  accuracy                    1.0000000          :
          :  -> integral cutoff          0.2500000E+02      :
          :  -> integral neglect         0.1000000E-07      :
          :  -> SCF convergence          0.1000000E-05 Eh   :
          :  -> wf. convergence          0.1000000E-03 e    :
          :  Broyden damping             0.4000000          :
          ...................................................

 iter      E             dE          RMSdq      gap      omega  full diag
   1     -7.8661765 -0.786618E+01  0.172E-05    4.08       0.0  T
   2     -7.8661765 -0.161648E-12  0.936E-06    4.08    4779.3  T
   3     -7.8661765 -0.364153E-13  0.346E-06    4.08   12912.3  T

   *** convergence criteria satisfied after 3 iterations ***

         #    Occupation            Energy/Eh            Energy/eV
      -------------------------------------------------------------
         1        2.0000           -0.6871703             -18.6989
       ...           ...                  ...                  ...
         3        2.0000           -0.5945120             -16.1775
         4        2.0000           -0.5663605             -15.4115
         5        2.0000           -0.4656506             -12.6710
         6        2.0000           -0.4206236             -11.4458
         7        1.0000           -0.3671743              -9.9913
         8        1.0000           -0.3546526              -9.6506
         9        1.0000           -0.2491799              -6.7805 (HOMO)
        10                         -0.0993848              -2.7044 (LUMO)
        11                         -0.0595544              -1.6206
        12                          0.1472611               4.0072
        13                          0.1546806               4.2091
        14                          0.1548562               4.2139
      -------------------------------------------------------------
                  HL-Gap            0.1497951 Eh            4.0761 eV
             Fermi-level           -0.2840907 Eh           -7.7305 eV

 SCC (total)                   0 d,  0 h,  0 min,  0.002 sec
 SCC setup                      ...        0 min,  0.000 sec (  2.541%)
 Dispersion                     ...        0 min,  0.000 sec (  0.421%)
 integral evaluation            ...        0 min,  0.001 sec ( 39.273%)
 zeroth order Hamiltonian       ...        0 min,  0.000 sec (  0.590%)
 iterations                     ...        0 min,  0.000 sec ( 13.550%)
 molecular gradient             ...        0 min,  0.001 sec ( 39.287%)
 printout                       ...        0 min,  0.000 sec (  3.889%)

         :::::::::::::::::::::::::::::::::::::::::::::::::::::
         ::                     SUMMARY                     ::
         :::::::::::::::::::::::::::::::::::::::::::::::::::::
         :: total energy              -7.802454041813 Eh    ::
         :: gradient norm              0.000159642755 Eh/a0 ::
         :: HOMO-LUMO gap              4.076131379700 eV    ::
         ::.................................................::
         :: SCC energy                -7.866176464941 Eh    ::
         :: -> isotropic ES           -0.004231468919 Eh    ::
         :: -> anisotropic ES          0.004022640043 Eh    ::
         :: -> anisotropic XC          0.001839009388 Eh    ::
         :: -> dispersion             -0.001503616488 Eh    ::
         :: repulsion energy           0.063722399762 Eh    ::
         :: add. restraining           0.000000000000 Eh    ::
         :::::::::::::::::::::::::::::::::::::::::::::::::::::

           ------------------------------------------------- 
          |                Numerical Hessian                |
           ------------------------------------------------- 
step length          :   0.00500
SCC accuracy         :   0.30000
Hessian scale factor :   1.00000
frozen atoms in %    :   0.00000    0
RMS gradient         :   0.00016
estimated CPU  time      0.00 min
estimated wall time      0.00 min

writing file <hessian>.

 projected vibrational frequencies (cm-1)
eigval :       -0.00    -0.00     0.00     0.00     0.00     0.00
eigval :      461.25   656.98   769.17   781.56   872.04  1138.11
eigval :     1394.71  3223.83  3234.72
           -------------------------------------------------
          |                Property Printout                |
           -------------------------------------------------

    * Orbital Energies and Occupations

         #    Occupation            Energy/Eh            Energy/eV
      -------------------------------------------------------------
         1        2.0000           -0.6871704             -18.6989
         2        2.0000           -0.6396157             -17.4048
         3        2.0000           -0.5945120             -16.1775
         4        2.0000           -0.5663606             -15.4115
         5        2.0000           -0.4656507             -12.6710
         6        2.0000           -0.4206237             -11.4458
         7        1.0000           -0.3671743              -9.9913
         8        1.0000           -0.3546527              -9.6506
         9        1.0000           -0.2491799              -6.7805 (HOMO)
        10                         -0.0993849              -2.7044 (LUMO)
        11                         -0.0595544              -1.6206
        12                          0.1472611               4.0072
        13                          0.1546806               4.2091
        14                          0.1548562               4.2139
      -------------------------------------------------------------
                  HL-Gap            0.1497951 Eh            4.0761 eV
             Fermi-level           -0.2840907 Eh           -7.7305 eV

     #   Z        covCN         q      C6AA      α(0)
     1   7 N      3.530    -0.028    21.777     6.931
     2   6 C      1.878    -0.167    35.917     9.680
     3   6 C      1.878    -0.167    35.917     9.680
     4   1 H      0.860     0.181     1.208     1.722
     5   1 H      0.860     0.181     1.208     1.722

 Mol. C6AA /au·bohr⁶  :        354.580164
 Mol. C8AA /au·bohr⁸  :       8821.861956
 Mol. α(0) /au        :         29.734197


Wiberg/Mayer (AO) data.
largest (>0.10) Wiberg bond orders for each atom
          total WBO             WBO to atom ...
     1  N   3.638        H    5 0.917    H    4 0.917    C    3 0.902    C    2 0.902
     2  C   1.645        N    1 0.902    C    3 0.732
     3  C   1.645        N    1 0.902    C    2 0.732
     4  H   0.931        N    1 0.917
     5  H   0.931        N    1 0.917

MOs/occ written to file <molden.input>


molecular dipole:
                 x           y           z       tot (Debye)
 q only:       -0.037       1.181       0.141
   full:       -0.064       2.052       0.246       5.255
molecular quadrupole (traceless):
                xx          xy          yy          xz          yz          zz
 q only:       -1.058      -0.019      -0.322      -0.025      -0.208       1.381
  q+dip:       -1.390       0.033      -2.212      -0.043      -0.708       3.603
   full:       -1.498       0.030      -2.184      -0.045      -0.714       3.682

           -------------------------------------------------
          |                Geometry Summary                 |
           -------------------------------------------------

      molecular mass/u    :       40.0440565
   center of mass at/Å    :        0.0140114      -0.4490850      -0.0537577
  moments of inertia/u·Å² :        0.1584682E+02   0.1920019E+02   0.3215368E+02
rotational constants/cm⁻¹ :        0.1063786E+01   0.8779929E+00   0.5242832E+00

 * 2 selected distances

     #   Z        #   Z                                     value/Å
     1   7 N      4   1 H                                 1.0215990 (max)
     1   7 N      5   1 H                                 1.0215990 (min)

 * 1 distinct bonds (by element types)

   Z      Z             #   av. dist./Å        max./Å        min./Å
   1 H    7 N           2     1.0215990     1.0215990     1.0215990

           -------------------------------------------------
          |               Frequency Printout                |
           -------------------------------------------------
 projected vibrational frequencies (cm-1)
eigval :       -0.00    -0.00     0.00     0.00     0.00     0.00
eigval :      461.25   656.98   769.17   781.56   872.04  1138.11
eigval :     1394.71  3223.83  3234.72
 reduced masses (amu)
   1: 11.72   2: 11.54   3: 11.92   4: 11.56   5: 11.81   6: 10.23   7: 12.64   8:  2.01
   9:  3.73  10: 12.43  11:  2.94  12: 12.32  13:  1.75  14:  2.15  15:  1.39
 IR intensities (amu)
   1:  0.20   2:  0.15   3:  0.29   4:  0.39   5:  0.18   6:  0.49   7:  1.28   8:  0.00
   9:  0.08  10:  0.92  11:  0.32  12:  0.51  13:  0.32  14:  0.01  15:  0.13
 Raman intensities (amu)
   1:  0.00   2:  0.00   3:  0.00   4:  0.00   5:  0.00   6:  0.00   7:  0.00   8:  0.00
   9:  0.00  10:  0.00  11:  0.00  12:  0.00  13:  0.00  14:  0.00  15:  0.00
 output can be read by thermo (or use thermo option).
 writing <g98.out> molden fake output.
 recommended (thermochemical) frequency scaling factor: 1.0
Molecule has the following symmetry elements: (C2) 2*(sigma) 
It seems to be the C2v point group
           -------------------------------------------------
          |             Thermodynamic Functions             |
           -------------------------------------------------

c2v symmetry found (for desy threshold:  0.10E+00) used in thermo

          ...................................................
          :                      SETUP                      :
          :.................................................:
          :  # frequencies                           9      :
          :  # imaginary freq.                       0      :
          :  linear?                             false      :
          :  only rotor calc.                    false      :
          :  symmetry                              c2v      :
          :  rotational number                       2      :
          :  scaling factor                  1.0000000      :
          :  rotor cutoff                   50.0000000 cm⁻¹ :
          :  imag. cutoff                  -20.0000000 cm⁻¹ :
          :.................................................:

    mode    ω/cm⁻¹     T·S(HO)/kcal·mol⁻¹    T·S(FR)/kcal·mol⁻¹   T·S(vib)
   ------------------------------------------------------------------------
   ------------------------------------------------------------------------

   temp. (K)  partition function   enthalpy   heat capacity  entropy
                                   cal/mol     cal/K/mol   cal/K/mol   J/K/mol
 298.15  VIB   1.25                  405.564      4.531      1.808
         ROT  0.378E+04              888.752      2.981     19.350
         INT  0.473E+04             1294.317      7.511     21.158
         TR   0.245E+27             1481.254      4.968     36.973
         TOT                        2775.5707    12.4796    58.1315   243.2223

   temp. (K)  partition function   enthalpy   heat capacity  entropy
                                   cal/mol     cal/K/mol   cal/K/mol   J/K/mol
 120.00  VIB   1.00                    6.446      0.328      0.063
         ROT   965.                  357.707      2.981     16.637
         INT   969.                  364.153      3.309     16.700
         TR   0.626E+26              596.178      4.968     32.454
         TOT                         960.3307     8.2770    49.1536   205.6587

   temp. (K)  partition function   enthalpy   heat capacity  entropy
                                   cal/mol     cal/K/mol   cal/K/mol   J/K/mol
 100.00  VIB   1.00                    1.952      0.137      0.022
         ROT   734.                  298.089      2.981     16.093
         INT   735.                  300.041      3.118     16.116
         TR   0.476E+26              496.815      4.968     31.549
         TOT                         796.8564     8.0863    47.6643   199.4275

   temp. (K)  partition function   enthalpy   heat capacity  entropy
                                   cal/mol     cal/K/mol   cal/K/mol   J/K/mol
  80.00  VIB   1.00                    0.347      0.037      0.005
         ROT   525.                  238.471      2.981     15.428
         INT   525.                  238.819      3.018     15.433
         TR   0.341E+26              397.452      4.968     30.440
         TOT                         636.2707     7.9860    45.8735   191.9349

   temp. (K)  partition function   enthalpy   heat capacity  entropy
                                   cal/mol     cal/K/mol   cal/K/mol   J/K/mol
  60.00  VIB   1.00                    0.021      0.004      0.000
         ROT   341.                  178.853      2.981     14.571
         INT   341.                  178.874      2.985     14.571
         TR   0.221E+26              298.089      4.968     29.012
         TOT                         476.9634     7.9529    43.5829   182.3508

   temp. (K)  partition function   enthalpy   heat capacity  entropy
                                   cal/mol     cal/K/mol   cal/K/mol   J/K/mol
  40.00  VIB   1.00                    0.000      0.000     -0.000
         ROT   186.                  119.236      2.981     13.362
         INT   186.                  119.236      2.981     13.362
         TR   0.120E+26              198.726      4.968     26.999
         TOT                         317.9617     7.9491    40.3604   168.8677

   temp. (K)  partition function   enthalpy   heat capacity  entropy
                                   cal/mol     cal/K/mol   cal/K/mol   J/K/mol
  20.00  VIB   1.00                    0.000      0.000     -0.000
         ROT   65.6                   59.618      2.981     11.296
         INT   65.6                   59.618      2.981     11.295
         TR   0.426E+25               99.363      4.968     23.557
         TOT                         158.9808     7.9490    34.8520   145.8209

   temp. (K)  partition function   enthalpy   heat capacity  entropy
                                   cal/mol     cal/K/mol   cal/K/mol   J/K/mol
  10.00  VIB   1.00                    0.000      0.000     -0.000
         ROT   23.2                   29.809      2.981      9.230
         INT   23.2                   29.809      2.981      9.229
         TR   0.151E+25               49.681      4.968     20.115
         TOT                          79.4904     7.9490    29.3437   122.7740

       T/K    H(0)-H(T)+PV         H(T)/Eh          T*S/Eh         G(T)/Eh
   ------------------------------------------------------------------------
    298.15    0.442315E-02    0.329740E-01    0.276202E-01    0.535383E-02
    120.00    0.153038E-02    0.300812E-01    0.939975E-02    0.206815E-01
    100.00    0.126987E-02    0.298207E-01    0.759579E-02    0.222249E-01
     80.00    0.101396E-02    0.295648E-01    0.584833E-02    0.237165E-01
     60.00    0.760090E-03    0.293109E-01    0.416723E-02    0.251437E-01
     40.00    0.506704E-03    0.290575E-01    0.257273E-02    0.264848E-01
     20.00    0.253352E-03    0.288042E-01    0.111080E-02    0.276934E-01
     10.00    0.126676E-03    0.286775E-01    0.467622E-03    0.282099E-01 (used)
   ------------------------------------------------------------------------

         :::::::::::::::::::::::::::::::::::::::::::::::::::::
         ::                  THERMODYNAMIC                  ::
         :::::::::::::::::::::::::::::::::::::::::::::::::::::
         :: total free energy          -7.774244148099 Eh   ::
         ::.................................................::
         :: total energy               -7.802454041843 Eh   ::
         :: zero point energy           0.028550839304 Eh   ::
         :: G(RRHO) w/o ZPVE           -0.000340945560 Eh   ::
         :: G(RRHO) contrib.            0.028209893744 Eh   ::
         :::::::::::::::::::::::::::::::::::::::::::::::::::::

optimized geometry written to: xtbopt.xyz


           -------------------------------------------------
          | TOTAL ENERGY               -7.802454041843 Eh   |
          | TOTAL ENTHALPY             -7.773776526523 Eh   |
          | TOTAL FREE ENERGY          -7.774244148099 Eh   |
          | GRADIENT NORM               0.000159675561 Eh/α |
          | HOMO-LUMO GAP               4.076131431615 eV   |
           -------------------------------------------------

------------------------------------------------------------------------
 * finished run on 2020/05/12 at 11:44:46.969     
------------------------------------------------------------------------
 total:
 * wall-time:     0 d,  0 h,  0 min,  0.110 sec
 *  cpu-time:     0 d,  0 h,  0 min,  0.110 sec
 * ratio c/w:     0.999 speedup
 SCF:
 * wall-time:     0 d,  0 h,  0 min,  0.003 sec
 *  cpu-time:     0 d,  0 h,  0 min,  0.003 sec
 * ratio c/w:     1.000 speedup
 ANC optimizer:
 * wall-time:     0 d,  0 h,  0 min,  0.039 sec
 *  cpu-time:     0 d,  0 h,  0 min,  0.039 sec
 * ratio c/w:     0.999 speedup
 numerical hessian:
 * wall-time:     0 d,  0 h,  0 min,  0.052 sec
 *  cpu-time:     0 d,  0 h,  0 min,  0.052 sec
 * ratio c/w:     0.999 speedup

