      -----------------------------------------------------------      
     |                   =====================                   |     
     |                           x T B                           |     
     |                   =====================                   |     
     |                         S. Grimme                         |     
     |          Mulliken Center for Theoretical Chemistry        |     
     |                    University of Bonn                     |     
      -----------------------------------------------------------      

   * xtb version 6.2.2 (9d81278992624c895f80dd42a50cac0aa55982e2) compiled by '@Darwin' on 04/03/2020

   xtb is free software: you can redistribute it and/or modify it under
   the terms of the GNU Lesser General Public License as published by
   the Free Software Foundation, either version 3 of the License, or
   (at your option) any later version.
   
   xtb is distributed in the hope that it will be useful,
   but WITHOUT ANY WARRANTY; without even the implied warranty of
   MERCHANTABILITY or FITNESS FOR A PARTICULAR PURPOSE.  See the
   GNU Lesser General Public License for more details.
   
   Cite this work as:
   * S. Grimme, C. Bannwarth, P. Shushkov, J. Chem. Theory Comput., 2017,
     13, 1989-2009. DOI: 10.1021/acs.jctc.7b00118
   * C. Bannwarth, S. Ehlert and S. Grimme., J. Chem. Theory Comput., 2019,
     15, 1652-1671. DOI: 10.1021/acs.jctc.8b01176
   * P. Pracht, E. Caldeweyher, S. Ehlert, S. Grimme, ChemRxiv, 2019, preprint.
     DOI: 10.26434/chemrxiv.8326202.v1
   
   for DFT-D4:
   * E. Caldeweyher, C. Bannwarth and S. Grimme, J. Chem. Phys., 2017,
     147, 034112. DOI: 10.1063/1.4993215
   * E. Caldeweyher, S. Ehlert, A. Hansen, H. Neugebauer, S. Spicher,
     C. Bannwarth and S. Grimme, J. Chem. Phys., 2019, 150, 154122.
     DOI: 10.1063/1.5090222
   
   for sTDA-xTB:
   * S. Grimme and C. Bannwarth, J. Chem. Phys., 2016, 145, 054103.
     DOI: 10.1063/1.4959605
   
   in the mass-spec context:
   * V. Asgeirsson, C. Bauer and S. Grimme, Chem. Sci., 2017, 8, 4879.
     DOI: 10.1039/c7sc00601b
   
   for metadynamics refer to:
   * S. Grimme, J. Chem. Theory Comput., 2019, 155, 2847-2862
     DOI: 10.1021/acs.jctc.9b00143
   
   with help from (in alphabetical order)
   C. Bannwarth, F. Bohle, G. Brandenburg, E. Caldeweyher, M. Checinski,
   S. Dohm, S. Ehlert, S. Ehrlich, F. März, H. Neugebauer, J. Pisarek,
   P. Pracht, P. Shushkov, and S. Spicher.
   
 * started run on 2020/05/12 at 11:44:02.259     

           -------------------------------------------------
          |                Calculation Setup                |
           -------------------------------------------------

          program call               : xtb --input C4N1_11_S_1.input C4N1_11_S_1.xyz --ohess --molden --namespace C4N1_11_S_1 output.out
          calculation namespace      : C4N1_11_S_1
          coordinate file            : C4N1_11_S_1.xyz
          number of atoms            :                     5
          number of electrons        :                    21
          charge                     :                     0
          spin                       :                   0.5
          first test random number   :      0.35877610586631

   ID    Z sym.   atoms
    1    6 C      1, 2, 4, 5
    2    7 N      3

           -------------------------------------------------
          |                 G F N 2 - x T B                 |
           -------------------------------------------------

        Reference                      10.1021/acs.jctc.8b01176
      * Hamiltonian:
        H0-scaling (s, p, d)           1.850000    2.230000    2.230000
        zeta-weighting                 0.500000
      * Dispersion:
        s8                             2.700000
        a1                             0.520000
        a2                             5.000000
        s9                             5.000000
      * Repulsion:
        kExp                           1.500000    1.000000
        rExp                           1.000000
      * Coulomb:
        alpha                          2.000000
        third order                    shell-resolved
        anisotropic                    true
        a3                             3.000000
        a5                             4.000000
        cn-shift                       1.200000
        cn-exp                         4.000000
        max-rad                        5.000000


          ...................................................
          :                      SETUP                      :
          :.................................................:
          :  # basis functions                  20          :
          :  # atomic orbitals                  20          :
          :  # shells                           10          :
          :  # electrons                        21          :
          :  max. iterations                   250          :
          :  Hamiltonian                  GFN2-xTB          :
          :  restarted?                      false          :
          :  GBSA solvation                  false          :
          :  PC potential                    false          :
          :  electronic temp.          300.0000000     K    :
          :  accuracy                    1.0000000          :
          :  -> integral cutoff          0.2500000E+02      :
          :  -> integral neglect         0.1000000E-07      :
          :  -> SCF convergence          0.1000000E-05 Eh   :
          :  -> wf. convergence          0.1000000E-03 e    :
          :  Broyden damping             0.4000000          :
          ...................................................

 iter      E             dE          RMSdq      gap      omega  full diag
   1    -10.7332244 -0.107332E+02  0.130E+01    0.10       0.0  T
   2     -7.5195569  0.321367E+01  0.161E+01    0.31       1.0  T
   3     -8.2294974 -0.709940E+00  0.177E+01    1.53       1.0  T
   4     -9.9026450 -0.167315E+01  0.117E+01    0.99       1.0  T
   5    -10.5116283 -0.608983E+00  0.676E+00    0.26       1.0  T
   6    -10.8678141 -0.356186E+00  0.448E+00    0.06       1.0  T
   7    -10.8719697 -0.415558E-02  0.431E+00    0.07       1.0  T
   8    -10.8912720 -0.193023E-01  0.331E+00    0.06       1.0  T
   9    -10.8995529 -0.828095E-02  0.270E+00    0.05       1.0  T
  10    -10.9080504 -0.849745E-02  0.236E+00    0.05       1.0  T
  11    -10.9265240 -0.184736E-01  0.101E+00    0.06       1.0  T
  12    -10.9285106 -0.198660E-02  0.504E-01    0.07       1.0  T
  13    -10.9284295  0.810412E-04  0.425E-01    0.06       1.0  T
  14    -10.9285326 -0.103084E-03  0.129E-01    0.06       1.0  T
  15    -10.9285826 -0.499915E-04  0.675E-02    0.06       1.0  T
  16    -10.9285830 -0.350316E-06  0.257E-02    0.06       1.7  T
  17    -10.9285845 -0.153328E-05  0.135E-02    0.06       3.3  T
  18    -10.9285854 -0.854653E-06  0.888E-03    0.06       5.0  T
  19    -10.9285860 -0.652799E-06  0.438E-03    0.06      10.2  T
  20    -10.9285860 -0.304226E-07  0.318E-03    0.06      14.0  T
  21    -10.9285861 -0.193191E-07  0.943E-04    0.06      47.4  T
  22    -10.9285861 -0.314859E-08  0.372E-04    0.06     120.3  T

   *** convergence criteria satisfied after 22 iterations ***

         #    Occupation            Energy/Eh            Energy/eV
      -------------------------------------------------------------
         1        2.0000           -0.7628951             -20.7594
       ...           ...                  ...                  ...
         5        2.0000           -0.5847741             -15.9125
         6        2.0000           -0.5537013             -15.0670
         7        2.0000           -0.5387054             -14.6589
         8        2.0000           -0.5123672             -13.9422
         9        2.0000           -0.4799443             -13.0600
        10        1.9998           -0.4666411             -12.6979
        11        0.7655           -0.4498941             -12.2422 (HOMO)
        12        0.2347           -0.4476481             -12.1811 (LUMO)
        13        0.0000           -0.4369102             -11.8889
        14                         -0.4144026             -11.2765
        15                         -0.3651383              -9.9359
        16                         -0.1366946              -3.7196
       ...                                ...                  ...
        20                          0.2178265               5.9274
      -------------------------------------------------------------
                  HL-Gap            0.0022461 Eh            0.0611 eV
             Fermi-level           -0.4535407 Eh          -12.3415 eV

 SCC (total)                   0 d,  0 h,  0 min,  0.006 sec
 SCC setup                      ...        0 min,  0.000 sec (  1.360%)
 Dispersion                     ...        0 min,  0.000 sec (  0.306%)
 integral evaluation            ...        0 min,  0.002 sec ( 29.108%)
 zeroth order Hamiltonian       ...        0 min,  0.000 sec (  0.419%)
 iterations                     ...        0 min,  0.002 sec ( 43.610%)
 molecular gradient             ...        0 min,  0.001 sec ( 23.497%)
 printout                       ...        0 min,  0.000 sec (  1.519%)

         :::::::::::::::::::::::::::::::::::::::::::::::::::::
         ::                     SUMMARY                     ::
         :::::::::::::::::::::::::::::::::::::::::::::::::::::
         :: total energy             -10.856966687146 Eh    ::
         :: gradient norm              0.239377576758 Eh/a0 ::
         :: HOMO-LUMO gap              0.061119278015 eV    ::
         ::.................................................::
         :: SCC energy               -10.928586066169 Eh    ::
         :: -> isotropic ES           -0.029775620314 Eh    ::
         :: -> anisotropic ES          0.002073102882 Eh    ::
         :: -> anisotropic XC          0.013689147877 Eh    ::
         :: -> dispersion             -0.002964135873 Eh    ::
         :: repulsion energy           0.071619191200 Eh    ::
         :: add. restraining           0.000000000000 Eh    ::
         :::::::::::::::::::::::::::::::::::::::::::::::::::::

      ----------------------------------------------------------- 
     |                   =====================                   |
     |                        A N C O P T                        |
     |                   =====================                   |
     |               Approximate Normal Coordinate               |
     |                Rational Function Optimizer                |
      ----------------------------------------------------------- 

          ...................................................
          :                      SETUP                      :
          :.................................................:
          :   optimization level            normal          :
          :   max. optcycles                   200          :
          :   ANC micro-cycles                  20          :
          :   degrees of freedom                 9          :
          :.................................................:
          :   RF solver                   davidson          :
          :   write xtbopt.log                true          :
          :   linear?                        false          :
          :   energy convergence         0.5000000E-05 Eh   :
          :   grad. convergence          0.1000000E-02 Eh/α :
          :   maximium RF displ.         1.0000000          :
          :   Hlow (freq-cutoff)         0.1000000E-01      :
          :   Hmax (freq-cutoff)         5.0000000          :
          :   S6 in model hess.         20.0000000          :
          ...................................................

generating ANC from model Hessian ...
Using Lindh-Hessian (1995)
 Shifting diagonal of input Hessian by    0.0000000000000000     
 Lowest  eigenvalues of input Hessian
   -0.000000   -0.000000    0.000000    0.000000    0.000000    0.000000
    0.062775    0.065777    0.087791    0.132645    0.405943    0.844079
    0.922753    1.129717    1.570958
 Highest eigenvalues
    0.132645    0.405943    0.844079    0.922753    1.129717    1.570958


........................................................................
.............................. CYCLE    1 ..............................
........................................................................
   1    -10.9285861 -0.109286E+02  0.176E-04    0.06       0.0  T
   2    -10.9285861  0.636122E-09  0.341E-04    0.06     131.3  T
   3    -10.9285861 -0.630324E-09  0.121E-04    0.06     370.0  T
     SCC iter.                  ...        0 min,  0.000 sec
     gradient                   ...        0 min,  0.001 sec
 * total energy  :   -10.8569667 Eh     change       -0.8423910E-09 Eh
   gradient norm :     0.2393774 Eh/α   predicted     0.0000000E+00 (-100.00%)
   displ. norm   :     0.2688900 α      lambda       -0.6099739E-01
   maximum displ.:     0.2339932 α      in ANC's #7, #5, #3, ...

........................................................................
.............................. CYCLE    2 ..............................
........................................................................
   1    -11.0070187 -0.110070E+02  0.268E+00    0.08       0.0  T
   2    -11.0012616  0.575710E-02  0.271E+00    0.01       1.0  T
   3    -11.0129303 -0.116687E-01  0.112E+00    0.06       1.0  T
   4    -11.0116239  0.130647E-02  0.697E-01    0.06       1.0  T
   5    -11.0122772 -0.653329E-03  0.576E-01    0.06       1.0  T
   6    -11.0098263  0.245084E-02  0.657E-01    0.05       1.0  T
   7    -11.0134845 -0.365814E-02  0.669E-02    0.05       1.0  T
   8    -11.0135020 -0.175552E-04  0.198E-02    0.05       2.3  T
   9    -11.0135023 -0.258648E-06  0.668E-03    0.05       6.7  T
  10    -11.0135024 -0.640560E-07  0.224E-03    0.05      19.9  T
  11    -11.0135024 -0.568121E-08  0.541E-04    0.05      82.7  T
  12    -11.0135024 -0.142629E-09  0.112E-04    0.05     400.4  T
     SCC iter.                  ...        0 min,  0.001 sec
     gradient                   ...        0 min,  0.001 sec
 * total energy  :   -10.9096273 Eh     change       -0.5266059E-01 Eh
   gradient norm :     0.1651854 Eh/α   predicted    -0.3270381E-01 ( -37.90%)
   displ. norm   :     0.5044830 α      lambda       -0.7747030E-01
   maximum displ.:     0.4363390 α      in ANC's #7, #3, #6, ...

........................................................................
.............................. CYCLE    3 ..............................
........................................................................
   1    -10.5747213 -0.105747E+02  0.979E+00    0.63       0.0  T
   2     -8.1033750  0.247135E+01  0.185E+01    0.84       1.0  T
   3    -11.1159839 -0.301261E+01  0.581E+00    0.60       1.0  T
   4    -11.1652627 -0.492788E-01  0.429E+00    0.39       1.0  T
   5    -10.6142358  0.551027E+00  0.780E+00    0.49       1.0  T
   6    -11.1581216 -0.543886E+00  0.224E+00    0.30       1.0  T
   7    -11.1670455 -0.892388E-02  0.184E+00    0.29       1.0  T
   8    -11.1700002 -0.295477E-02  0.153E+00    0.27       1.0  T
   9    -11.1715263 -0.152609E-02  0.143E+00    0.26       1.0  T
  10    -11.1780647 -0.653843E-02  0.819E-01    0.21       1.0  T
  11    -11.1788112 -0.746434E-03  0.883E-01    0.21       1.0  T
  12    -11.1807276 -0.191647E-02  0.266E-01    0.17       1.0  T
  13    -11.1809048 -0.177118E-03  0.657E-02    0.16       1.0  T
  14    -11.1809063 -0.152416E-05  0.524E-02    0.16       1.0  T
  15    -11.1809129 -0.659129E-05  0.624E-03    0.16       7.2  T
  16    -11.1809131 -0.250438E-06  0.171E-03    0.16      26.2  T
  17    -11.1809131  0.161095E-08  0.105E-03    0.16      42.7  T
  18    -11.1809131 -0.347414E-08  0.359E-04    0.16     124.7  T
  19    -11.1809131 -0.447962E-09  0.139E-04    0.16     321.0  T
     SCC iter.                  ...        0 min,  0.001 sec
     gradient                   ...        0 min,  0.002 sec
 * total energy  :   -10.9022094 Eh     change        0.7417886E-02 Eh
   gradient norm :     0.4465654 Eh/α   predicted    -0.4859337E-01 (-755.08%)
   displ. norm   :     0.2566347 α      lambda       -0.1033453E+00
   maximum displ.:     0.2252369 α      in ANC's #7, #3, #6, ...

........................................................................
.............................. CYCLE    4 ..............................
........................................................................
   1    -11.0670554 -0.110671E+02  0.267E+00    0.27       0.0  T
   2    -10.1132464  0.953809E+00  0.113E+01    0.63       1.0  T
   3    -11.0851071 -0.971861E+00  0.128E+00    0.17       1.0  T
   4    -10.9150663  0.170041E+00  0.430E+00    0.03       1.0  T
   5    -11.0904173 -0.175351E+00  0.520E-01    0.15       1.0  T
   6    -11.0906122 -0.194945E-03  0.253E-01    0.14       1.0  T
   7    -11.0902533  0.358891E-03  0.286E-01    0.15       1.0  T
   8    -11.0902929 -0.395415E-04  0.258E-01    0.15       1.0  T
   9    -11.0903341 -0.412448E-04  0.244E-01    0.15       1.0  T
  10    -11.0905050 -0.170914E-03  0.177E-01    0.15       1.0  T
  11    -11.0906587 -0.153694E-03  0.997E-02    0.15       1.0  T
  12    -11.0906974 -0.387011E-04  0.739E-02    0.15       1.0  T
  13    -11.0907282 -0.307651E-04  0.423E-02    0.15       1.1  T
  14    -11.0907405 -0.123461E-04  0.153E-02    0.15       2.9  T
  15    -11.0907409 -0.397007E-06  0.892E-03    0.14       5.0  T
  16    -11.0907409  0.486531E-07  0.378E-03    0.14      11.8  T
  17    -11.0907409 -0.415125E-07  0.217E-03    0.14      20.6  T
  18    -11.0907409 -0.303055E-07  0.543E-04    0.14      82.4  T
  19    -11.0907409 -0.316927E-09  0.264E-05    0.14    1694.8  T
     SCC iter.                  ...        0 min,  0.002 sec
     gradient                   ...        0 min,  0.001 sec
 * total energy  :   -10.9409407 Eh     change       -0.3873135E-01 Eh
   gradient norm :     0.0762960 Eh/α   predicted    -0.5507591E-01 (  42.20%)
   displ. norm   :     0.4421536 α      lambda       -0.2222248E-01
   maximum displ.:     0.4288914 α      in ANC's #3, #1, #5, ...

........................................................................
.............................. CYCLE    5 ..............................
........................................................................
   1    -10.9583186 -0.109583E+02  0.525E+00    0.38       0.0  T
   2    -10.8130460  0.145273E+00  0.605E+00    0.30       1.0  T
   3    -11.0763232 -0.263277E+00  0.244E+00    0.93       1.0  T
   4    -11.0952961 -0.189729E-01  0.141E+00    0.85       1.0  T
   5    -11.0458799  0.494162E-01  0.283E+00    0.72       1.0  T
   6    -11.0950111 -0.491312E-01  0.136E+00    0.85       1.0  T
   7    -11.0992600 -0.424888E-02  0.112E+00    0.85       1.0  T
   8    -11.1064732 -0.721321E-02  0.472E-01    0.83       1.0  T
   9    -11.1069751 -0.501947E-03  0.392E-01    0.83       1.0  T
  10    -11.1070740 -0.988712E-04  0.374E-01    0.83       1.0  T
  11    -11.1055133  0.156069E-02  0.586E-01    0.84       1.0  T
  12    -11.1039041  0.160923E-02  0.743E-01    0.81       1.0  T
  13    -11.1075555 -0.365143E-02  0.250E-01    0.83       1.0  T
  14    -11.1080021 -0.446609E-03  0.444E-02    0.82       1.0  T
  15    -11.1080160 -0.139263E-04  0.693E-03    0.82       6.5  T
  16    -11.1080163 -0.309383E-06  0.101E-03    0.82      44.3  T
  17    -11.1080161  0.252928E-06  0.584E-03    0.82       7.7  T
  18    -11.1080163 -0.225210E-06  0.196E-03    0.82      22.8  T
  19    -11.1080163 -0.285885E-07  0.993E-05    0.82     450.5  T
  20    -11.1080163 -0.677574E-10  0.230E-05    0.82    1946.5  T
     SCC iter.                  ...        0 min,  0.002 sec
     gradient                   ...        0 min,  0.001 sec
 * total energy  :   -10.9624525 Eh     change       -0.2151177E-01 Eh
   gradient norm :     0.0639355 Eh/α   predicted    -0.1328349E-01 ( -38.25%)
   displ. norm   :     0.8940435 α      lambda       -0.4003244E-01
   maximum displ.:     0.8853923 α      in ANC's #3, #7, #1, ...

........................................................................
.............................. CYCLE    6 ..............................
........................................................................
   1    -10.9625814 -0.109626E+02  0.632E+00    1.65       0.0  T
   2    -10.5813072  0.381274E+00  0.791E+00    0.12       1.0  T
   3    -11.0954390 -0.514132E+00  0.290E+00    2.36       1.0  T
   4    -10.9724194  0.123020E+00  0.426E+00    1.81       1.0  T
   5    -11.0776197 -0.105200E+00  0.272E+00    2.19       1.0  T
   6    -11.0833275 -0.570784E-02  0.251E+00    2.23       1.0  T
   7    -11.1001217 -0.167942E-01  0.181E+00    2.36       1.0  T
   8    -11.1090766 -0.895488E-02  0.164E+00    2.38       1.0  T
   9    -11.0440395  0.650371E-01  0.287E+00    2.36       1.0  T
  10    -11.1023195 -0.582800E-01  0.167E+00    2.39       1.0  T
  11    -11.1186727 -0.163532E-01  0.105E+00    2.39       1.0  T
  12    -11.1111273  0.754542E-02  0.136E+00    2.38       1.0  T
  13    -11.1289716 -0.178443E-01  0.448E-01    2.40       1.0  T
  14    -11.1273744  0.159727E-02  0.551E-01    2.40       1.0  T
  15    -11.1288892 -0.151483E-02  0.406E-01    2.40       1.0  T
  16    -11.1306849 -0.179577E-02  0.858E-02    2.40       1.0  T
  17    -11.1298813  0.803663E-03  0.272E-01    2.41       1.0  T
  18    -11.1306680 -0.786710E-03  0.633E-02    2.40       1.0  T
  19    -11.1306292  0.388447E-04  0.755E-02    2.40       1.0  T
  20    -11.1306788 -0.496091E-04  0.368E-02    2.40       1.2  T
  21    -11.1306910 -0.122208E-04  0.645E-03    2.40       6.9  T
  22    -11.1306878  0.317810E-05  0.186E-02    2.40       2.4  T
  23    -11.1306913 -0.348683E-05  0.360E-03    2.40      12.4  T
  24    -11.1306914 -0.139037E-06  0.368E-04    2.40     121.5  T
  25    -11.1306914  0.677589E-07  0.252E-03    2.40      17.8  T
  26    -11.1306914 -0.679699E-07  0.705E-05    2.40     634.0  T
     SCC iter.                  ...        0 min,  0.002 sec
     gradient                   ...        0 min,  0.001 sec
 * total energy  :   -10.9941238 Eh     change       -0.3167132E-01 Eh
   gradient norm :     0.1323703 Eh/α   predicted    -0.3601557E-01 (  13.72%)
   displ. norm   :     0.7661683 α      lambda       -0.3682681E-01
   maximum displ.:     0.7481109 α      in ANC's #3, #7, #5, ...

........................................................................
.............................. CYCLE    7 ..............................
........................................................................
   1    -11.1542212 -0.111542E+02  0.547E+00    0.79       0.0  T
   2    -10.7571816  0.397040E+00  0.693E+00    0.94       1.0  T
   3    -11.1057285 -0.348547E+00  0.349E+00    0.29       1.0  T
   4    -11.1491578 -0.434293E-01  0.176E+00    0.58       1.0  T
   5    -11.1555592 -0.640141E-02  0.140E+00    0.62       1.0  T
   6    -11.1613595 -0.580033E-02  0.121E+00    0.72       1.0  T
   7    -11.1647852 -0.342570E-02  0.104E+00    0.78       1.0  T
   8    -11.1666888 -0.190354E-02  0.895E-01    0.83       1.0  T
   9    -11.1686282 -0.193941E-02  0.712E-01    0.87       1.0  T
  10    -11.1716046 -0.297637E-02  0.229E-01    0.99       1.0  T
  11    -11.1680089  0.359561E-02  0.609E-01    1.05       1.0  T
  12    -11.1679937  0.151999E-04  0.610E-01    1.05       1.0  T
  13    -11.1665059  0.148780E-02  0.711E-01    1.05       1.0  T
  14    -11.1715886 -0.508271E-02  0.208E-01    1.04       1.0  T
  15    -11.1719050 -0.316353E-03  0.114E-01    1.03       1.0  T
  16    -11.1720119 -0.106940E-03  0.546E-02    1.03       1.0  T
  17    -11.1720394 -0.274517E-04  0.190E-02    1.02       2.4  T
  18    -11.1720412 -0.179413E-05  0.137E-02    1.02       3.3  T
  19    -11.1720431 -0.189204E-05  0.212E-03    1.02      21.1  T
  20    -11.1720431 -0.405262E-08  0.199E-03    1.02      22.5  T
  21    -11.1720431 -0.384620E-07  0.387E-04    1.02     115.6  T
  22    -11.1720431 -0.105172E-08  0.206E-04    1.02     217.5  T
     SCC iter.                  ...        0 min,  0.002 sec
     gradient                   ...        0 min,  0.001 sec
 * total energy  :   -10.9909641 Eh     change        0.3159778E-02 Eh
   gradient norm :     0.2106919 Eh/α   predicted    -0.2922235E-01 (*******%)
   displ. norm   :     0.4643018 α      lambda       -0.6839625E-01
   maximum displ.:     0.4515761 α      in ANC's #3, #1, #7, ...

........................................................................
.............................. CYCLE    8 ..............................
........................................................................
   1    -10.9432988 -0.109433E+02  0.524E+00    1.98       0.0  T
   2     -7.5481377  0.339516E+01  0.188E+01    0.13       1.0  T
   3    -11.0960466 -0.354791E+01  0.386E+00    1.25       1.0  T
   4    -11.1601690 -0.641224E-01  0.205E+00    1.79       1.0  T
   5    -11.1636717 -0.350263E-02  0.163E+00    1.94       1.0  T
   6    -10.9832995  0.180372E+00  0.410E+00    1.99       1.0  T
   7    -11.1697787 -0.186479E+00  0.100E+00    2.01       1.0  T
   8    -11.1688738  0.904923E-03  0.901E-01    1.99       1.0  T
   9    -11.1692125 -0.338687E-03  0.900E-01    2.01       1.0  T
  10    -11.1706440 -0.143150E-02  0.722E-01    2.03       1.0  T
  11    -11.1691753  0.146865E-02  0.829E-01    2.00       1.0  T
  12    -11.1683879  0.787369E-03  0.926E-01    1.98       1.0  T
  13    -11.0396388  0.128749E+00  0.352E+00    2.04       1.0  T
  14    -11.1751326 -0.135494E+00  0.201E-01    2.07       1.0  T
  15    -11.1747672  0.365461E-03  0.271E-01    2.08       1.0  T
  16    -11.1754616 -0.694487E-03  0.894E-02    2.08       1.0  T
  17    -11.1755433 -0.816906E-04  0.576E-03    2.08       7.8  T
  18    -11.1755435 -0.195966E-06  0.347E-03    2.08      12.9  T
  19    -11.1755210  0.225073E-04  0.458E-02    2.08       1.0  T
  20    -11.1755404 -0.193912E-04  0.173E-02    2.08       2.6  T
  21    -11.1755292  0.111797E-04  0.364E-02    2.08       1.2  T
  22    -11.1755415 -0.122571E-04  0.139E-02    2.08       3.2  T
  23    -11.1755425 -0.992150E-06  0.100E-02    2.08       4.5  T
  24    -11.1755433 -0.839817E-06  0.463E-03    2.08       9.7  T
  25    -11.1755436 -0.235033E-06  0.421E-04    2.08     106.3  T
  26    -11.1755436  0.287140E-08  0.663E-04    2.08      67.5  T
     SCC iter.                  ...        0 min,  0.002 sec
     gradient                   ...        0 min,  0.001 sec
 * total energy  :   -11.0212810 Eh     change       -0.3031691E-01 Eh
   gradient norm :     0.0981167 Eh/α   predicted    -0.4157040E-01 (  37.12%)
   displ. norm   :     0.1943797 α      lambda       -0.1367160E-01
   maximum displ.:     0.1478846 α      in ANC's #1, #5, #6, ...

........................................................................
.............................. CYCLE    9 ..............................
........................................................................
   1    -11.1910003 -0.111910E+02  0.192E+00    1.91       0.0  T
   2    -11.1737228  0.172775E-01  0.228E+00    1.69       1.0  T
   3    -11.1859923 -0.122695E-01  0.195E+00    2.00       1.0  T
   4    -11.1938478 -0.785549E-02  0.396E-01    1.89       1.0  T
   5    -11.1924317  0.141609E-02  0.741E-01    1.90       1.0  T
   6    -11.1942402 -0.180850E-02  0.166E-01    1.92       1.0  T
   7    -11.1942707 -0.304755E-04  0.112E-01    1.93       1.0  T
   8    -11.1942922 -0.215154E-04  0.525E-02    1.92       1.0  T
   9    -11.1942997 -0.748309E-05  0.119E-02    1.92       3.8  T
  10    -11.1942998 -0.125580E-06  0.826E-03    1.92       5.4  T
  11    -11.1942999 -0.116392E-06  0.241E-03    1.92      18.5  T
  12    -11.1942999 -0.286047E-08  0.126E-03    1.92      35.6  T
  13    -11.1942999 -0.171332E-08  0.667E-04    1.92      67.1  T
  14    -11.1942999 -0.426487E-09  0.963E-05    1.92     464.5  T
     SCC iter.                  ...        0 min,  0.002 sec
     gradient                   ...        0 min,  0.001 sec
 * total energy  :   -11.0326665 Eh     change       -0.1138557E-01 Eh
   gradient norm :     0.0928485 Eh/α   predicted    -0.7094074E-02 ( -37.69%)
   displ. norm   :     0.4104736 α      lambda       -0.2786658E-01
   maximum displ.:     0.2926509 α      in ANC's #6, #1, #5, ...

........................................................................
.............................. CYCLE   10 ..............................
........................................................................
   1    -11.1556529 -0.111557E+02  0.458E+00    1.15       0.0  T
   2     -9.8448146  0.131084E+01  0.118E+01    0.98       1.0  T
   3    -11.1563081 -0.131149E+01  0.304E+00    1.26       1.0  T
   4    -11.1800815 -0.237733E-01  0.232E+00    1.06       1.0  T
   5    -11.2135137 -0.334322E-01  0.159E+00    0.96       1.0  T
   6    -11.2123954  0.111831E-02  0.170E+00    0.99       1.0  T
   7    -11.2122819  0.113496E-03  0.160E+00    0.97       1.0  T
   8    -11.2141466 -0.186470E-02  0.121E+00    0.93       1.0  T
   9    -11.2164401 -0.229355E-02  0.379E-01    0.76       1.0  T
  10    -11.2164741 -0.339676E-04  0.102E-01    0.80       1.0  T
  11    -11.2165327 -0.586248E-04  0.477E-02    0.79       1.0  T
  12    -11.2165342 -0.151506E-05  0.305E-02    0.79       1.5  T
  13    -11.2165354 -0.116745E-05  0.119E-02    0.78       3.7  T
  14    -11.2165355 -0.843341E-07  0.555E-03    0.78       8.1  T
  15    -11.2165355 -0.176370E-07  0.913E-04    0.78      49.0  T
  16    -11.2165355 -0.122820E-08  0.310E-04    0.78     144.0  T
     SCC iter.                  ...        0 min,  0.002 sec
     gradient                   ...        0 min,  0.001 sec
 * total energy  :   -11.0299308 Eh     change        0.2735762E-02 Eh
   gradient norm :     0.1861738 Eh/α   predicted    -0.1628091E-01 (-695.11%)
   displ. norm   :     0.2693376 α      lambda       -0.2958154E-01
   maximum displ.:     0.2304451 α      in ANC's #1, #6, #5, ...

........................................................................
.............................. CYCLE   11 ..............................
........................................................................
   1    -11.2102205 -0.112102E+02  0.250E+00    1.23       0.0  T
   2    -11.1783343  0.318863E-01  0.311E+00    1.65       1.0  T
   3    -11.2068990 -0.285648E-01  0.194E+00    1.18       1.0  T
   4    -11.2157774 -0.887842E-02  0.383E-01    1.41       1.0  T
   5    -11.2152167  0.560733E-03  0.583E-01    1.38       1.0  T
   6    -11.2163259 -0.110923E-02  0.142E-01    1.38       1.0  T
   7    -11.2163849 -0.589266E-04  0.459E-02    1.38       1.0  T
   8    -11.2163827  0.215731E-05  0.406E-02    1.37       1.1  T
   9    -11.2163877 -0.496029E-05  0.842E-03    1.38       5.3  T
  10    -11.2163876  0.520831E-07  0.878E-03    1.38       5.1  T
  11    -11.2163877 -0.945531E-07  0.570E-03    1.38       7.8  T
  12    -11.2163877 -0.338098E-07  0.345E-03    1.38      13.0  T
  13    -11.2163878 -0.182127E-07  0.828E-04    1.38      54.0  T
  14    -11.2163878 -0.107116E-08  0.935E-05    1.38     478.1  T
     SCC iter.                  ...        0 min,  0.002 sec
     gradient                   ...        0 min,  0.001 sec
 * total energy  :   -11.0453779 Eh     change       -0.1544718E-01 Eh
   gradient norm :     0.0903224 Eh/α   predicted    -0.1586374E-01 (   2.70%)
   displ. norm   :     0.1372162 α      lambda       -0.6194562E-02
   maximum displ.:     0.1060252 α      in ANC's #1, #6, #7, ...

........................................................................
.............................. CYCLE   12 ..............................
........................................................................
   1    -11.2288043 -0.112288E+02  0.674E-01    1.53       0.0  T
   2    -11.2284532  0.351105E-03  0.555E-01    1.49       1.0  T
   3    -11.2211758  0.727741E-02  0.148E+00    1.46       1.0  T
   4    -11.2282259 -0.705012E-02  0.464E-01    1.47       1.0  T
   5    -11.2290346 -0.808704E-03  0.955E-02    1.50       1.0  T
   6    -11.2290538 -0.192353E-04  0.773E-02    1.49       1.0  T
   7    -11.2290603 -0.650445E-05  0.594E-02    1.48       1.0  T
   8    -11.2290655 -0.514249E-05  0.363E-02    1.48       1.2  T
   9    -11.2290697 -0.421979E-05  0.806E-03    1.49       5.5  T
  10    -11.2290699 -0.183279E-06  0.974E-04    1.49      45.9  T
  11    -11.2290699 -0.118684E-08  0.608E-04    1.49      73.5  T
     SCC iter.                  ...        0 min,  0.001 sec
     gradient                   ...        0 min,  0.001 sec
 * total energy  :   -11.0509082 Eh     change       -0.5530299E-02 Eh
   gradient norm :     0.0682813 Eh/α   predicted    -0.3155595E-02 ( -42.94%)
   displ. norm   :     0.5283253 α      lambda       -0.2709450E-01
   maximum displ.:     0.3805192 α      in ANC's #6, #7, #1, ...

........................................................................
.............................. CYCLE   13 ..............................
........................................................................
   1    -11.2606581 -0.112607E+02  0.285E+00    2.07       0.0  T
   2    -11.2460094  0.146487E-01  0.248E+00    2.40       1.0  T
   3    -11.2443948  0.161459E-02  0.220E+00    1.61       1.0  T
   4    -11.2305202  0.138746E-01  0.249E+00    1.76       1.0  T
   5    -11.2641000 -0.335797E-01  0.793E-01    2.12       1.0  T
   6    -11.2643814 -0.281426E-03  0.717E-01    2.03       1.0  T
   7    -11.2649047 -0.523309E-03  0.539E-01    2.03       1.0  T
   8    -11.2655041 -0.599407E-03  0.129E-01    2.08       1.0  T
   9    -11.2655700 -0.659105E-04  0.168E-02    2.08       2.7  T
  10    -11.2655690  0.992698E-06  0.253E-02    2.08       1.8  T
  11    -11.2655693 -0.281577E-06  0.213E-02    2.08       2.1  T
  12    -11.2655702 -0.860753E-06  0.719E-03    2.08       6.2  T
  13    -11.2655702 -0.756319E-07  0.392E-03    2.08      11.4  T
  14    -11.2655703 -0.319661E-07  0.577E-04    2.08      77.5  T
  15    -11.2655703 -0.702174E-09  0.393E-05    2.08    1138.5  T
     SCC iter.                  ...        0 min,  0.001 sec
     gradient                   ...        0 min,  0.001 sec
 * total energy  :   -11.0723359 Eh     change       -0.2142769E-01 Eh
   gradient norm :     0.0872527 Eh/α   predicted    -0.1732868E-01 ( -19.13%)
   displ. norm   :     0.5620070 α      lambda       -0.2885374E-01
   maximum displ.:     0.4163389 α      in ANC's #6, #7, #5, ...

........................................................................
.............................. CYCLE   14 ..............................
........................................................................
   1    -11.2647565 -0.112648E+02  0.241E+00    1.83       0.0  T
   2    -11.2157307  0.490258E-01  0.385E+00    2.14       1.0  T
   3    -11.2667127 -0.509820E-01  0.144E+00    1.92       1.0  T
   4    -11.2419460  0.247667E-01  0.216E+00    1.76       1.0  T
   5    -11.2664796 -0.245336E-01  0.803E-01    1.96       1.0  T
   6    -11.2681141 -0.163446E-02  0.478E-01    1.97       1.0  T
   7    -11.2682814 -0.167341E-03  0.431E-01    1.96       1.0  T
   8    -11.2686151 -0.333703E-03  0.270E-01    1.96       1.0  T
   9    -11.2688223 -0.207160E-03  0.118E-01    1.98       1.0  T
  10    -11.2688063  0.160087E-04  0.151E-01    1.98       1.0  T
  11    -11.2688476 -0.413249E-04  0.693E-02    1.98       1.0  T
  12    -11.2688579 -0.102767E-04  0.127E-02    1.98       3.5  T
  13    -11.2688580 -0.126360E-06  0.992E-03    1.99       4.5  T
  14    -11.2688582 -0.193289E-06  0.187E-03    1.99      23.9  T
  15    -11.2688582 -0.794063E-08  0.261E-04    1.99     171.1  T
  16    -11.2688582 -0.471445E-10  0.208E-04    1.99     215.4  T
     SCC iter.                  ...        0 min,  0.001 sec
     gradient                   ...        0 min,  0.001 sec
 * total energy  :   -11.0856283 Eh     change       -0.1329240E-01 Eh
   gradient norm :     0.0962406 Eh/α   predicted    -0.1898361E-01 (  42.82%)
   displ. norm   :     0.2726713 α      lambda       -0.1552540E-01
   maximum displ.:     0.2271322 α      in ANC's #1, #6, #5, ...

........................................................................
.............................. CYCLE   15 ..............................
........................................................................
   1    -11.2946332 -0.112946E+02  0.167E+00    2.33       0.0  T
   2    -11.2438384  0.507948E-01  0.327E+00    1.99       1.0  T
   3    -11.2915418 -0.477034E-01  0.138E+00    2.22       1.0  T
   4    -11.2934717 -0.192991E-02  0.110E+00    2.42       1.0  T
   5    -11.2982415 -0.476984E-02  0.520E-01    2.22       1.0  T
   6    -11.2984604 -0.218880E-03  0.471E-01    2.24       1.0  T
   7    -11.2984641 -0.367814E-05  0.472E-01    2.24       1.0  T
   8    -11.2989020 -0.437946E-03  0.155E-01    2.27       1.0  T
   9    -11.2989469 -0.448754E-04  0.715E-02    2.28       1.0  T
  10    -11.2989561 -0.917480E-05  0.129E-02    2.28       3.5  T
  11    -11.2989566 -0.570406E-06  0.399E-03    2.29      11.2  T
  12    -11.2989567 -0.143405E-07  0.344E-03    2.29      13.0  T
  13    -11.2989567 -0.181462E-07  0.478E-04    2.29      93.6  T
  14    -11.2989567 -0.323137E-09  0.616E-05    2.29     725.9  T
     SCC iter.                  ...        0 min,  0.002 sec
     gradient                   ...        0 min,  0.001 sec
 * total energy  :   -11.0959861 Eh     change       -0.1035773E-01 Eh
   gradient norm :     0.0859134 Eh/α   predicted    -0.8339872E-02 ( -19.48%)
   displ. norm   :     0.3492803 α      lambda       -0.1625616E-01
   maximum displ.:     0.1793974 α      in ANC's #1, #3, #5, ...

........................................................................
.............................. CYCLE   16 ..............................
........................................................................
   1    -11.3161308 -0.113161E+02  0.138E+00    2.19       0.0  T
   2    -11.3161446 -0.138794E-04  0.833E-01    2.21       1.0  T
   3    -11.3147416  0.140301E-02  0.481E-01    2.16       1.0  T
   4    -11.3162621 -0.152049E-02  0.880E-02    2.18       1.0  T
   5    -11.3162701 -0.803000E-05  0.795E-02    2.20       1.0  T
   6    -11.3162937 -0.235341E-04  0.990E-03    2.19       4.5  T
   7    -11.3162937 -0.933232E-08  0.626E-03    2.18       7.1  T
   8    -11.3162939 -0.225559E-06  0.272E-03    2.19      16.5  T
   9    -11.3162939 -0.108429E-07  0.419E-04    2.19     106.7  T
  10    -11.3162939 -0.548070E-09  0.180E-04    2.19     248.2  T
     SCC iter.                  ...        0 min,  0.001 sec
     gradient                   ...        0 min,  0.001 sec
 * total energy  :   -11.1047083 Eh     change       -0.8722198E-02 Eh
   gradient norm :     0.0908751 Eh/α   predicted    -0.9119668E-02 (   4.56%)
   displ. norm   :     0.4069126 α      lambda       -0.1197119E-01
   maximum displ.:     0.2932141 α      in ANC's #1, #5, #3, ...

........................................................................
.............................. CYCLE   17 ..............................
........................................................................
   1    -11.2853431 -0.112853E+02  0.138E+00    1.76       0.0  T
   2    -11.2827155  0.262757E-02  0.105E+00    1.54       1.0  T
   3    -11.2842240 -0.150850E-02  0.859E-01    1.84       1.0  T
   4    -11.2862883 -0.206432E-02  0.395E-01    1.64       1.0  T
   5    -11.2873236 -0.103523E-02  0.606E-02    1.69       1.0  T
   6    -11.2873244 -0.825156E-06  0.490E-02    1.71       1.0  T
   7    -11.2873299 -0.547503E-05  0.276E-02    1.70       1.6  T
   8    -11.2873333 -0.339615E-05  0.478E-03    1.70       9.4  T
   9    -11.2873334 -0.807173E-07  0.173E-03    1.70      25.8  T
  10    -11.2873334 -0.627566E-08  0.183E-04    1.70     244.1  T
  11    -11.2873334 -0.423359E-10  0.814E-05    1.70     549.3  T
     SCC iter.                  ...        0 min,  0.001 sec
     gradient                   ...        0 min,  0.001 sec
 * total energy  :   -11.1095884 Eh     change       -0.4880131E-02 Eh
   gradient norm :     0.1072243 Eh/α   predicted    -0.6976664E-02 (  42.96%)
   displ. norm   :     0.1271150 α      lambda       -0.5191186E-02
   maximum displ.:     0.0704406 α      in ANC's #2, #4, #6, ...

........................................................................
.............................. CYCLE   18 ..............................
........................................................................
   1    -11.2949377 -0.112949E+02  0.703E-01    1.83       0.0  T
   2    -11.2942394  0.698315E-03  0.536E-01    1.96       1.0  T
   3    -11.2952237 -0.984317E-03  0.399E-01    1.79       1.0  T
   4    -11.2955232 -0.299508E-03  0.196E-01    1.89       1.0  T
   5    -11.2957507 -0.227468E-03  0.772E-02    1.86       1.0  T
   6    -11.2957884 -0.377621E-04  0.226E-02    1.86       2.0  T
   7    -11.2957890 -0.578386E-06  0.158E-02    1.86       2.8  T
   8    -11.2957901 -0.111678E-05  0.152E-03    1.86      29.5  T
   9    -11.2957901  0.102835E-08  0.101E-03    1.86      44.4  T
  10    -11.2957901 -0.195386E-08  0.917E-05    1.86     487.9  T
  11    -11.2957901 -0.138591E-10  0.122E-05    1.86    3654.8  T
     SCC iter.                  ...        0 min,  0.001 sec
     gradient                   ...        0 min,  0.001 sec
 * total energy  :   -11.1117359 Eh     change       -0.2147514E-02 Eh
   gradient norm :     0.0565866 Eh/α   predicted    -0.2637532E-02 (  22.82%)
   displ. norm   :     0.0956069 α      lambda       -0.4123523E-02
   maximum displ.:     0.0688752 α      in ANC's #7, #6, #3, ...

........................................................................
.............................. CYCLE   19 ..............................
........................................................................
   1    -11.3137263 -0.113137E+02  0.421E-01    1.90       0.0  T
   2    -11.3136234  0.102913E-03  0.326E-01    1.93       1.0  T
   3    -11.3138094 -0.186009E-03  0.200E-01    1.89       1.0  T
   4    -11.3138932 -0.838278E-04  0.802E-02    1.93       1.0  T
   5    -11.3139302 -0.369387E-04  0.162E-02    1.91       2.8  T
   6    -11.3139287  0.142037E-05  0.150E-02    1.91       3.0  T
   7    -11.3139303 -0.158232E-05  0.129E-03    1.91      34.7  T
   8    -11.3139303 -0.483388E-08  0.632E-04    1.91      70.8  T
   9    -11.3139303 -0.455595E-09  0.107E-04    1.91     417.4  T
     SCC iter.                  ...        0 min,  0.001 sec
     gradient                   ...        0 min,  0.001 sec
 * total energy  :   -11.1147298 Eh     change       -0.2993876E-02 Eh
   gradient norm :     0.0330895 Eh/α   predicted    -0.2080609E-02 ( -30.50%)
   displ. norm   :     0.2555749 α      lambda       -0.5799903E-02
   maximum displ.:     0.1647255 α      in ANC's #7, #1, #5, ...

........................................................................
.............................. CYCLE   20 ..............................
........................................................................
   1    -11.3203382 -0.113203E+02  0.992E-01    1.71       0.0  T
   2    -11.3203331  0.513787E-05  0.576E-01    1.67       1.0  T
   3    -11.3189264  0.140672E-02  0.488E-01    1.79       1.0  T
   4    -11.3204714 -0.154506E-02  0.575E-02    1.69       1.0  T
   5    -11.3204562  0.152201E-04  0.664E-02    1.71       1.0  T
   6    -11.3204812 -0.250399E-04  0.206E-02    1.70       2.2  T
   7    -11.3204814 -0.184585E-06  0.122E-02    1.70       3.7  T
   8    -11.3204824 -0.955727E-06  0.177E-03    1.70      25.2  T
   9    -11.3204824 -0.636510E-08  0.488E-04    1.70      91.6  T
  10    -11.3204824 -0.313264E-09  0.922E-05    1.70     485.0  T
     SCC iter.                  ...        0 min,  0.001 sec
     gradient                   ...        0 min,  0.001 sec
 * total energy  :   -11.1186348 Eh     change       -0.3905014E-02 Eh
   gradient norm :     0.0437312 Eh/α   predicted    -0.3089370E-02 ( -20.89%)
   displ. norm   :     0.2113259 α      lambda       -0.3213434E-02
   maximum displ.:     0.1196790 α      in ANC's #1, #7, #9, ...
 * RMSD in coord.:     1.4883796 α      energy gain  -0.2616681E+00 Eh

generating ANC from model Hessian ...
Using Lindh-Hessian (1995)
 Shifting diagonal of input Hessian by    7.3762631053110187E-003
 Lowest  eigenvalues of input Hessian
   -0.000000   -0.000000   -0.000000    0.000000    0.000000    0.000000
    0.010000    0.052937    0.303965    0.398952    0.724752    1.091709
    1.254221    1.812167    2.825547
 Highest eigenvalues
    0.398952    0.724752    1.091709    1.254221    1.812167    2.825547


........................................................................
.............................. CYCLE   21 ..............................
........................................................................
   1    -11.3236933 -0.113237E+02  0.757E-01    1.60       0.0  T
   2    -11.3236594  0.339034E-04  0.459E-01    1.62       1.0  T
   3    -11.3221786  0.148079E-02  0.472E-01    1.55       1.0  T
   4    -11.3237452 -0.156662E-02  0.640E-02    1.62       1.0  T
   5    -11.3237618 -0.165614E-04  0.318E-02    1.61       1.4  T
   6    -11.3237630 -0.125143E-05  0.140E-02    1.61       3.2  T
   7    -11.3237639 -0.839888E-06  0.657E-03    1.61       6.8  T
   8    -11.3237642 -0.318948E-06  0.141E-03    1.61      31.7  T
   9    -11.3237642 -0.499483E-08  0.412E-04    1.61     108.6  T
  10    -11.3237642 -0.101929E-09  0.695E-05    1.61     643.6  T
     SCC iter.                  ...        0 min,  0.001 sec
     gradient                   ...        0 min,  0.001 sec
 * total energy  :   -11.1208765 Eh     change       -0.2241671E-02 Eh
   gradient norm :     0.0413263 Eh/α   predicted     0.0000000E+00 (-100.00%)
   displ. norm   :     0.1498182 α      lambda       -0.1975408E-02
   maximum displ.:     0.1429525 α      in ANC's #2, #1, #3, ...

........................................................................
.............................. CYCLE   22 ..............................
........................................................................
   1    -11.3301302 -0.113301E+02  0.555E-01    1.67       0.0  T
   2    -11.3300528  0.774438E-04  0.352E-01    1.72       1.0  T
   3    -11.3293936  0.659211E-03  0.376E-01    1.61       1.0  T
   4    -11.3301864 -0.792864E-03  0.717E-02    1.69       1.0  T
   5    -11.3302173 -0.309176E-04  0.178E-02    1.69       2.5  T
   6    -11.3302172  0.146360E-06  0.122E-02    1.68       3.7  T
   7    -11.3302176 -0.434851E-06  0.653E-03    1.68       6.9  T
   8    -11.3302179 -0.258925E-06  0.684E-04    1.68      65.4  T
   9    -11.3302179 -0.689937E-10  0.305E-04    1.68     146.5  T
     SCC iter.                  ...        0 min,  0.001 sec
     gradient                   ...        0 min,  0.001 sec
 * total energy  :   -11.1221043 Eh     change       -0.1227820E-02 Eh
   gradient norm :     0.0167335 Eh/α   predicted    -0.1009873E-02 ( -17.75%)
   displ. norm   :     0.1552376 α      lambda       -0.7174594E-03
   maximum displ.:     0.1244024 α      in ANC's #1, #2, #5, ...

........................................................................
.............................. CYCLE   23 ..............................
........................................................................
   1    -11.3317583 -0.113318E+02  0.568E-01    1.72       0.0  T
   2    -11.3317402  0.181355E-04  0.338E-01    1.75       1.0  T
   3    -11.3311310  0.609203E-03  0.315E-01    1.66       1.0  T
   4    -11.3318049 -0.673949E-03  0.312E-02    1.73       1.4  T
   5    -11.3318040  0.943719E-06  0.267E-02    1.73       1.7  T
   6    -11.3318072 -0.319947E-05  0.851E-03    1.73       5.3  T
   7    -11.3318075 -0.324906E-06  0.319E-03    1.73      14.0  T
   8    -11.3318076 -0.594009E-07  0.809E-04    1.73      55.3  T
   9    -11.3318076 -0.817701E-09  0.168E-04    1.73     266.6  T
     SCC iter.                  ...        0 min,  0.001 sec
     gradient                   ...        0 min,  0.001 sec
 * total energy  :   -11.1224283 Eh     change       -0.3239885E-03 Eh
   gradient norm :     0.0136938 Eh/α   predicted    -0.3673749E-03 (  13.39%)
   displ. norm   :     0.1265221 α      lambda       -0.7212425E-03
   maximum displ.:     0.0864866 α      in ANC's #1, #2, #5, ...

........................................................................
.............................. CYCLE   24 ..............................
........................................................................
   1    -11.3338062 -0.113338E+02  0.480E-01    1.79       0.0  T
   2    -11.3337947  0.115561E-04  0.285E-01    1.82       1.0  T
   3    -11.3333613  0.433392E-03  0.264E-01    1.76       1.0  T
   4    -11.3338452 -0.483968E-03  0.246E-02    1.80       1.8  T
   5    -11.3338428  0.247907E-05  0.292E-02    1.81       1.5  T
   6    -11.3338468 -0.408466E-05  0.791E-03    1.80       5.7  T
   7    -11.3338468  0.810995E-07  0.490E-03    1.80       9.1  T
   8    -11.3338469 -0.150142E-06  0.885E-04    1.80      50.5  T
   9    -11.3338469 -0.870331E-09  0.104E-04    1.80     431.1  T
     SCC iter.                  ...        0 min,  0.001 sec
     gradient                   ...        0 min,  0.001 sec
 * total energy  :   -11.1228732 Eh     change       -0.4449458E-03 Eh
   gradient norm :     0.0140176 Eh/α   predicted    -0.3663956E-03 ( -17.65%)
   displ. norm   :     0.0601463 α      lambda       -0.4591421E-03
   maximum displ.:     0.0466763 α      in ANC's #5, #2, #1, ...

........................................................................
.............................. CYCLE   25 ..............................
........................................................................
   1    -11.3353903 -0.113354E+02  0.239E-01    1.84       0.0  T
   2    -11.3353857  0.459957E-05  0.142E-01    1.84       1.0  T
   3    -11.3352423  0.143446E-03  0.159E-01    1.85       1.0  T
   4    -11.3353996 -0.157324E-03  0.158E-02    1.84       2.8  T
   5    -11.3353994  0.242919E-06  0.152E-02    1.84       2.9  T
   6    -11.3354005 -0.118994E-05  0.529E-03    1.84       8.5  T
   7    -11.3354006 -0.559154E-07  0.455E-04    1.84      98.2  T
   8    -11.3354006  0.146487E-09  0.317E-04    1.84     140.9  T
     SCC iter.                  ...        0 min,  0.001 sec
     gradient                   ...        0 min,  0.001 sec
 * total energy  :   -11.1232331 Eh     change       -0.3599105E-03 Eh
   gradient norm :     0.0140943 Eh/α   predicted    -0.2304021E-03 ( -35.98%)
   displ. norm   :     0.1074957 α      lambda       -0.6551165E-03
   maximum displ.:     0.0855536 α      in ANC's #5, #2, #8, ...

........................................................................
.............................. CYCLE   26 ..............................
........................................................................
   1    -11.3341376 -0.113341E+02  0.409E-01    1.85       0.0  T
   2    -11.3341378 -0.157283E-06  0.237E-01    1.84       1.0  T
   3    -11.3339028  0.234993E-03  0.205E-01    1.89       1.0  T
   4    -11.3341538 -0.251041E-03  0.356E-02    1.85       1.3  T
   5    -11.3341580 -0.424091E-05  0.203E-02    1.85       2.2  T
   6    -11.3341591 -0.106217E-05  0.915E-03    1.85       4.9  T
   7    -11.3341594 -0.275980E-06  0.467E-03    1.85       9.6  T
   8    -11.3341595 -0.149664E-06  0.435E-04    1.85     102.9  T
   9    -11.3341595 -0.304519E-09  0.117E-04    1.85     381.5  T
     SCC iter.                  ...        0 min,  0.001 sec
     gradient                   ...        0 min,  0.001 sec
 * total energy  :   -11.1236304 Eh     change       -0.3972580E-03 Eh
   gradient norm :     0.0162020 Eh/α   predicted    -0.3313406E-03 ( -16.59%)
   displ. norm   :     0.0365421 α      lambda       -0.2326933E-03
   maximum displ.:     0.0267785 α      in ANC's #5, #1, #8, ...

........................................................................
.............................. CYCLE   27 ..............................
........................................................................
   1    -11.3364573 -0.113365E+02  0.152E-01    1.83       0.0  T
   2    -11.3364381  0.191485E-04  0.109E-01    1.84       1.0  T
   3    -11.3364478 -0.965373E-05  0.902E-02    1.83       1.0  T
   4    -11.3364734 -0.256075E-04  0.377E-02    1.84       1.2  T
   5    -11.3364816 -0.817705E-05  0.796E-03    1.83       5.6  T
   6    -11.3364817 -0.163432E-06  0.499E-03    1.83       9.0  T
   7    -11.3364817  0.428486E-08  0.362E-03    1.83      12.3  T
   8    -11.3364818 -0.750095E-07  0.487E-04    1.83      91.8  T
   9    -11.3364818 -0.274872E-09  0.550E-05    1.83     813.3  T
     SCC iter.                  ...        0 min,  0.001 sec
     gradient                   ...        0 min,  0.001 sec
 * total energy  :   -11.1237561 Eh     change       -0.1256847E-03 Eh
   gradient norm :     0.0067333 Eh/α   predicted    -0.1165028E-03 (  -7.31%)
   displ. norm   :     0.0550853 α      lambda       -0.1131765E-03
   maximum displ.:     0.0464908 α      in ANC's #2, #5, #1, ...

........................................................................
.............................. CYCLE   28 ..............................
........................................................................
   1    -11.3332673 -0.113333E+02  0.198E-01    1.80       0.0  T
   2    -11.3332628  0.449480E-05  0.125E-01    1.79       1.0  T
   3    -11.3331996  0.632281E-04  0.115E-01    1.80       1.0  T
   4    -11.3332764 -0.768128E-04  0.187E-02    1.79       2.4  T
   5    -11.3332783 -0.184806E-05  0.832E-03    1.79       5.4  T
   6    -11.3332782  0.794518E-07  0.601E-03    1.79       7.4  T
   7    -11.3332784 -0.230089E-06  0.837E-04    1.79      53.4  T
   8    -11.3332784 -0.262672E-08  0.351E-04    1.79     127.4  T
     SCC iter.                  ...        0 min,  0.001 sec
     gradient                   ...        0 min,  0.001 sec
 * total energy  :   -11.1238025 Eh     change       -0.4637479E-04 Eh
   gradient norm :     0.0070116 Eh/α   predicted    -0.5676056E-04 (  22.40%)
   displ. norm   :     0.0106829 α      lambda       -0.2836365E-04
   maximum displ.:     0.0077535 α      in ANC's #5, #1, #2, ...

........................................................................
.............................. CYCLE   29 ..............................
........................................................................
   1    -11.3347983 -0.113348E+02  0.538E-02    1.79       0.0  T
   2    -11.3347957  0.263130E-05  0.409E-02    1.79       1.1  T
   3    -11.3347988 -0.314194E-05  0.287E-02    1.78       1.6  T
   4    -11.3348004 -0.158333E-05  0.161E-02    1.79       2.8  T
   5    -11.3348019 -0.147631E-05  0.261E-03    1.79      17.2  T
   6    -11.3348019 -0.232279E-07  0.154E-03    1.79      29.1  T
   7    -11.3348019 -0.280677E-08  0.109E-03    1.79      41.2  T
   8    -11.3348019 -0.565811E-08  0.981E-05    1.79     455.7  T
   9    -11.3348019 -0.784084E-11  0.138E-05    1.79    3240.2  T
     SCC iter.                  ...        0 min,  0.001 sec
     gradient                   ...        0 min,  0.001 sec
 * total energy  :   -11.1238185 Eh     change       -0.1605631E-04 Eh
   gradient norm :     0.0022899 Eh/α   predicted    -0.1418192E-04 ( -11.67%)
   displ. norm   :     0.0082106 α      lambda       -0.6195955E-05
   maximum displ.:     0.0069053 α      in ANC's #2, #5, #7, ...

........................................................................
.............................. CYCLE   30 ..............................
........................................................................
   1    -11.3352955 -0.113353E+02  0.314E-02    1.78       0.0  T
   2    -11.3352955 -0.713616E-10  0.187E-02    1.78       2.4  T
   3    -11.3352945  0.997132E-06  0.138E-02    1.78       3.2  T
   4    -11.3352956 -0.111278E-05  0.174E-03    1.78      25.7  T
   5    -11.3352956 -0.450525E-08  0.117E-03    1.78      38.3  T
   6    -11.3352956 -0.377176E-08  0.433E-04    1.78     103.3  T
   7    -11.3352956 -0.109128E-08  0.118E-04    1.78     380.1  T
     SCC iter.                  ...        0 min,  0.001 sec
     gradient                   ...        0 min,  0.001 sec
 * total energy  :   -11.1238229 Eh     change       -0.4349817E-05 Eh
   gradient norm :     0.0008939 Eh/α   predicted    -0.3097671E-05 ( -28.79%)
   displ. norm   :     0.0138599 α      lambda       -0.2736513E-05
   maximum displ.:     0.0113178 α      in ANC's #2, #5, #3, ...

   *** GEOMETRY OPTIMIZATION CONVERGED AFTER 30 ITERATIONS ***

------------------------------------------------------------------------
 total energy gain   :        -0.2668562 Eh     -167.4548 kcal/mol
 total RMSD          :         1.5964935 a0        0.8448 Å
 total power (kW/mol):       -23.3543596 (step)-5847.7508 (real)
------------------------------------------------------------------------

 ANCopt (total)                0 d,  0 h,  0 min,  0.120 sec
 optimizer setup                ...        0 min,  0.000 sec (  0.053%)
 model hessian                  ...        0 min,  0.000 sec (  0.099%)
 ANC generation                 ...        0 min,  0.000 sec (  0.075%)
 coordinate transformation      ...        0 min,  0.000 sec (  0.046%)
 single point calculation       ...        0 min,  0.117 sec ( 97.913%)
 optimization log               ...        0 min,  0.001 sec (  0.549%)
 hessian update                 ...        0 min,  0.000 sec (  0.061%)
 rational function              ...        0 min,  0.001 sec (  0.493%)

================
 final structure:
================
5
 xtb: 6.2.2 (9d81278992624c895f80dd42a50cac0aa55982e2)
C        -1.52133297593279   -0.71148115694871    0.17591256844020
C        -0.25805821594805    0.06139393722454    0.04220707793385
N         1.02286767601306    0.01326474401314   -0.13777882873932
C        -1.43022858929911    0.68608157523513    0.22898097308545
C         2.18675210516689   -0.04926009952411   -0.30932079072018

 Bond Distances (Angstroems)
 ---------------------------
C1-C2=1.4870         C1-C4=1.4015         C2-C1=1.4870         C2-N3=1.2944         C2-C4=1.3413         N3-C2=1.2944         
N3-C5=1.1781         C4-C1=1.4015         C4-C2=1.3413         C5-N3=1.1781         
 C  C  Rav=1.4099 sigma=0.0598  Rmin=1.3413  Rmax=1.4870     3
 N  C  Rav=1.2363 sigma=0.0581  Rmin=1.1781  Rmax=1.2944     2

 selected bond angles (degree)
 --------------------
C4-C1-C2= 55.24                N3-C2-C1=146.50                C4-C2-C1= 59.14                C4-C2-N3=154.35                
C5-N3-C2=179.01                C2-C4-C1= 65.61                

 selected dihedral angles (degree)
 ---------------------------------
N3-C2-C1-C4=180.44            C5-N3-C2-C1= 19.89            C5-N3-C2-C4=200.76            C1-C4-C2-N3=179.44            
           -------------------------------------------------
          |                Final Singlepoint                |
           -------------------------------------------------

          ...................................................
          :                      SETUP                      :
          :.................................................:
          :  # basis functions                  20          :
          :  # atomic orbitals                  20          :
          :  # shells                           10          :
          :  # electrons                        21          :
          :  max. iterations                   250          :
          :  Hamiltonian                  GFN2-xTB          :
          :  restarted?                      false          :
          :  GBSA solvation                  false          :
          :  PC potential                    false          :
          :  electronic temp.          300.0000000     K    :
          :  accuracy                    1.0000000          :
          :  -> integral cutoff          0.2500000E+02      :
          :  -> integral neglect         0.1000000E-07      :
          :  -> SCF convergence          0.1000000E-05 Eh   :
          :  -> wf. convergence          0.1000000E-03 e    :
          :  Broyden damping             0.4000000          :
          ...................................................

 iter      E             dE          RMSdq      gap      omega  full diag
   1    -11.3352956 -0.113353E+02  0.605E-05    1.78       0.0  T
   2    -11.3352956  0.878764E-11  0.406E-05    1.78    1101.4  T
   3    -11.3352956 -0.565414E-11  0.471E-05    1.78     950.5  T

   *** convergence criteria satisfied after 3 iterations ***

         #    Occupation            Energy/Eh            Energy/eV
      -------------------------------------------------------------
         1        2.0000           -0.7285958             -19.8261
       ...           ...                  ...                  ...
         5        2.0000           -0.5854823             -15.9318
         6        2.0000           -0.5449771             -14.8296
         7        2.0000           -0.5274791             -14.3534
         8        2.0000           -0.5045954             -13.7307
         9        2.0000           -0.4772962             -12.9879
        10        2.0000           -0.4317721             -11.7491
        11        1.0000           -0.4087140             -11.1217 (HOMO)
        12                         -0.3431882              -9.3386 (LUMO)
        13                         -0.2879139              -7.8345
        14                         -0.2724660              -7.4142
        15                         -0.1990812              -5.4173
        16                         -0.0339423              -0.9236
       ...                                ...                  ...
        20                          1.0699080              29.1137
      -------------------------------------------------------------
                  HL-Gap            0.0655258 Eh            1.7830 eV
             Fermi-level           -0.3980971 Eh          -10.8328 eV

 SCC (total)                   0 d,  0 h,  0 min,  0.003 sec
 SCC setup                      ...        0 min,  0.000 sec (  1.411%)
 Dispersion                     ...        0 min,  0.000 sec (  0.412%)
 integral evaluation            ...        0 min,  0.001 sec ( 41.233%)
 zeroth order Hamiltonian       ...        0 min,  0.000 sec (  0.511%)
 iterations                     ...        0 min,  0.000 sec ( 11.395%)
 molecular gradient             ...        0 min,  0.001 sec ( 42.293%)
 printout                       ...        0 min,  0.000 sec (  2.456%)

         :::::::::::::::::::::::::::::::::::::::::::::::::::::
         ::                     SUMMARY                     ::
         :::::::::::::::::::::::::::::::::::::::::::::::::::::
         :: total energy             -11.123822860424 Eh    ::
         :: gradient norm              0.000898453885 Eh/a0 ::
         :: HOMO-LUMO gap              1.783046723945 eV    ::
         ::.................................................::
         :: SCC energy               -11.335295597121 Eh    ::
         :: -> isotropic ES           -0.015411175765 Eh    ::
         :: -> anisotropic ES          0.000605952694 Eh    ::
         :: -> anisotropic XC          0.016902466183 Eh    ::
         :: -> dispersion             -0.002806856100 Eh    ::
         :: repulsion energy           0.211472809872 Eh    ::
         :: add. restraining           0.000000000000 Eh    ::
         :::::::::::::::::::::::::::::::::::::::::::::::::::::

           ------------------------------------------------- 
          |                Numerical Hessian                |
           ------------------------------------------------- 
step length          :   0.00500
SCC accuracy         :   0.30000
Hessian scale factor :   1.00000
frozen atoms in %    :   0.00000    0
RMS gradient         :   0.00090
estimated CPU  time      0.00 min
estimated wall time      0.00 min

writing file <hessian>.

 projected vibrational frequencies (cm-1)
eigval :       -0.00    -0.00    -0.00     0.00     0.00     0.00
eigval :      187.51   193.23   444.58   489.01   730.74  1010.88
eigval :     1229.48  1810.29  2099.13
           -------------------------------------------------
          |                Property Printout                |
           -------------------------------------------------

    * Orbital Energies and Occupations

         #    Occupation            Energy/Eh            Energy/eV
      -------------------------------------------------------------
         1        2.0000           -0.7285958             -19.8261
         2        2.0000           -0.7180380             -19.5388
         3        2.0000           -0.6770230             -18.4227
         4        2.0000           -0.6066678             -16.5083
         5        2.0000           -0.5854825             -15.9318
         6        2.0000           -0.5449769             -14.8296
         7        2.0000           -0.5274789             -14.3534
         8        2.0000           -0.5045952             -13.7307
         9        2.0000           -0.4772964             -12.9879
        10        2.0000           -0.4317717             -11.7491
        11        1.0000           -0.4087137             -11.1217 (HOMO)
        12                         -0.3431882              -9.3386 (LUMO)
        13                         -0.2879135              -7.8345
        14                         -0.2724661              -7.4142
        15                         -0.1990813              -5.4173
        16                         -0.0339422              -0.9236
        17                          0.0374111               1.0180
        18                          0.3007086               8.1827
        19                          0.5612275              15.2718
        20                          1.0699079              29.1137
      -------------------------------------------------------------
                  HL-Gap            0.0655254 Eh            1.7830 eV
             Fermi-level           -0.3980968 Eh          -10.8328 eV

     #   Z        covCN         q      C6AA      α(0)
     1   6 C      1.958    -0.114    34.247     9.451
     2   6 C      2.875     0.163    24.476     8.110
     3   7 N      1.821     0.060    20.843     6.765
     4   6 C      1.961    -0.017    31.515     9.066
     5   6 C      0.916    -0.093    38.385    10.372

 Mol. C6AA /au·bohr⁶  :        737.301507
 Mol. C8AA /au·bohr⁸  :      20428.829979
 Mol. α(0) /au        :         43.762854


Wiberg/Mayer (AO) data.
largest (>0.10) Wiberg bond orders for each atom
          total WBO             WBO to atom ...
     1  C   2.535        C    4 1.319    C    2 1.055    C    5 0.130
     2  C   3.835        C    4 1.466    N    3 1.258    C    1 1.055
     3  N   3.710        C    5 2.375    C    2 1.258
     4  C   2.950        C    2 1.466    C    1 1.319    C    5 0.118
     5  C   2.678        N    3 2.375    C    1 0.130    C    4 0.118

MOs/occ written to file <molden.input>


molecular dipole:
                 x           y           z       tot (Debye)
 q only:        0.027       0.161       0.006
   full:        0.063       0.447       0.018       1.147
molecular quadrupole (traceless):
                xx          xy          yy          xz          yz          zz
 q only:       -2.248      -0.530       0.981       0.474       0.057       1.267
  q+dip:       -5.475      -2.298       2.400       1.103       0.276       3.075
   full:       -8.007      -2.203       2.153       1.863       0.115       5.854

           -------------------------------------------------
          |                Geometry Summary                 |
           -------------------------------------------------

      molecular mass/u    :       62.0496468
   center of mass at/Å    :        0.0329028       0.0004263      -0.0044319
  moments of inertia/u·Å² :        0.1183680E+02   0.1275989E+03   0.1394346E+03
rotational constants/cm⁻¹ :        0.1424172E+01   0.1321143E+00   0.1208999E+00

 * 3 selected distances

     #   Z        #   Z                                     value/Å
     2   6 C      3   7 N                                 1.2944043
     2   6 C      4   6 C                                 1.3413063 (max)
     3   7 N      5   6 C                                 1.1781184 (min)

 * 2 distinct bonds (by element types)

   Z      Z             #   av. dist./Å        max./Å        min./Å
   6 C    6 C           1     1.3413063     1.3413063     1.3413063
   6 C    7 N           2     1.2362613     1.2944043     1.1781184

           -------------------------------------------------
          |               Frequency Printout                |
           -------------------------------------------------
 projected vibrational frequencies (cm-1)
eigval :       -0.00    -0.00    -0.00     0.00     0.00     0.00
eigval :      187.51   193.23   444.58   489.01   730.74  1010.88
eigval :     1229.48  1810.29  2099.13
 reduced masses (amu)
   1: 12.41   2: 12.56   3: 12.05   4: 12.14   5: 12.07   6: 12.60   7: 12.72   8: 12.40
   9: 12.97  10: 12.62  11: 12.30  12: 12.13  13: 12.05  14: 12.01  15: 13.09
 IR intensities (amu)
   1:  0.04   2:  0.05   3:  0.15   4:  0.15   5:  0.14   6:  0.01   7:  0.37   8:  0.36
   9:  0.19  10:  0.41  11:  0.12  12:  0.22  13:  0.32  14:  0.33  15:  0.28
 Raman intensities (amu)
   1:  0.00   2:  0.00   3:  0.00   4:  0.00   5:  0.00   6:  0.00   7:  0.00   8:  0.00
   9:  0.00  10:  0.00  11:  0.00  12:  0.00  13:  0.00  14:  0.00  15:  0.00
Molecule has the following symmetry elements: (sigma) 
It seems to be the Cs point group
 output can be read by thermo (or use thermo option).
 writing <g98.out> molden fake output.
 recommended (thermochemical) frequency scaling factor: 1.0
           -------------------------------------------------
          |             Thermodynamic Functions             |
           -------------------------------------------------

cs  symmetry found (for desy threshold:  0.10E+00) used in thermo

          ...................................................
          :                      SETUP                      :
          :.................................................:
          :  # frequencies                           9      :
          :  # imaginary freq.                       0      :
          :  linear?                             false      :
          :  only rotor calc.                    false      :
          :  symmetry                               cs      :
          :  rotational number                       1      :
          :  scaling factor                  1.0000000      :
          :  rotor cutoff                   50.0000000 cm⁻¹ :
          :  imag. cutoff                  -20.0000000 cm⁻¹ :
          :.................................................:

    mode    ω/cm⁻¹     T·S(HO)/kcal·mol⁻¹    T·S(FR)/kcal·mol⁻¹   T·S(vib)
   ------------------------------------------------------------------------
       1    187.51    -0.00000 ( 99.50%)     0.01144 (  0.50%)     0.00006
       2    193.23    -0.00000 ( 99.55%)     0.01174 (  0.45%)     0.00005
   ------------------------------------------------------------------------

   temp. (K)  partition function   enthalpy   heat capacity  entropy
                                   cal/mol     cal/K/mol   cal/K/mol   J/K/mol
 298.15  VIB   3.61                 1133.075      7.710      6.349
         ROT  0.351E+05              888.752      2.981     23.777
         INT  0.126E+06             2021.828     10.691     30.126
         TR   0.473E+27             1481.254      4.968     38.278
         TOT                        3503.0817    15.6587    68.4046   286.2047

   temp. (K)  partition function   enthalpy   heat capacity  entropy
                                   cal/mol     cal/K/mol   cal/K/mol   J/K/mol
 120.00  VIB   1.25                  134.234      3.117      1.568
         ROT  0.895E+04              357.707      2.981     21.064
         INT  0.112E+05              491.940      6.098     22.632
         TR   0.121E+27              596.178      4.968     33.759
         TOT                        1088.1184    11.0661    56.3907   235.9387

   temp. (K)  partition function   enthalpy   heat capacity  entropy
                                   cal/mol     cal/K/mol   cal/K/mol   J/K/mol
 100.00  VIB   1.15                   78.665      2.432      1.064
         ROT  0.681E+04              298.089      2.981     20.521
         INT  0.780E+04              376.754      5.413     21.584
         TR   0.919E+26              496.815      4.968     32.853
         TOT                         873.5691    10.3808    54.4375   227.7666

   temp. (K)  partition function   enthalpy   heat capacity  entropy
                                   cal/mol     cal/K/mol   cal/K/mol   J/K/mol
  80.00  VIB   1.07                   37.342      1.689      0.605
         ROT  0.487E+04              238.471      2.981     19.855
         INT  0.521E+04              275.813      4.670     20.461
         TR   0.657E+26              397.452      4.968     31.745
         TOT                         673.2650     9.6385    52.2062   218.4307

   temp. (K)  partition function   enthalpy   heat capacity  entropy
                                   cal/mol     cal/K/mol   cal/K/mol   J/K/mol
  60.00  VIB   1.02                   11.509      0.889      0.238
         ROT  0.316E+04              178.853      2.981     18.998
         INT  0.323E+04              190.362      3.869     19.236
         TR   0.427E+26              298.089      4.968     30.317
         TOT                         488.4510     8.8375    49.5529   207.3295

   temp. (K)  partition function   enthalpy   heat capacity  entropy
                                   cal/mol     cal/K/mol   cal/K/mol   J/K/mol
  40.00  VIB   1.00                    1.162      0.199      0.035
         ROT  0.172E+04              119.236      2.981     17.789
         INT  0.173E+04              120.398      3.180     17.824
         TR   0.232E+26              198.726      4.968     28.303
         TOT                         319.1236     8.1480    46.1276   192.9979

   temp. (K)  partition function   enthalpy   heat capacity  entropy
                                   cal/mol     cal/K/mol   cal/K/mol   J/K/mol
  20.00  VIB   1.00                    0.001      0.001     -0.005
         ROT   609.                   59.618      2.981     15.723
         INT   609.                   59.619      2.982     15.718
         TR   0.822E+25               99.363      4.968     24.861
         TOT                         158.9821     7.9499    40.5796   169.7851

   temp. (K)  partition function   enthalpy   heat capacity  entropy
                                   cal/mol     cal/K/mol   cal/K/mol   J/K/mol
  10.00  VIB   1.00                    0.000      0.000     -0.012
         ROT   215.                   29.809      2.981     13.657
         INT   215.                   29.809      2.981     13.645
         TR   0.290E+25               49.681      4.968     21.419
         TOT                          79.4904     7.9490    35.0646   146.7104

       T/K    H(0)-H(T)+PV         H(T)/Eh          T*S/Eh         G(T)/Eh
   ------------------------------------------------------------------------
    298.15    0.558252E-02    0.242518E-01    0.325012E-01   -0.824947E-02
    120.00    0.173403E-02    0.204033E-01    0.107837E-01    0.961955E-02
    100.00    0.139212E-02    0.200614E-01    0.867517E-02    0.113862E-01
     80.00    0.107292E-02    0.197422E-01    0.665567E-02    0.130865E-01
     60.00    0.778396E-03    0.194476E-01    0.473806E-02    0.147096E-01
     40.00    0.508556E-03    0.191778E-01    0.294036E-02    0.162374E-01
     20.00    0.253354E-03    0.189226E-01    0.129335E-02    0.176292E-01
     10.00    0.126676E-03    0.187959E-01    0.558790E-03    0.182371E-01 (used)
   ------------------------------------------------------------------------

         :::::::::::::::::::::::::::::::::::::::::::::::::::::
         ::                  THERMODYNAMIC                  ::
         :::::::::::::::::::::::::::::::::::::::::::::::::::::
         :: total free energy         -11.105585740014 Eh   ::
         ::.................................................::
         :: total energy              -11.123822860707 Eh   ::
         :: zero point energy           0.018669234975 Eh   ::
         :: G(RRHO) w/o ZPVE           -0.000432114282 Eh   ::
         :: G(RRHO) contrib.            0.018237120693 Eh   ::
         :::::::::::::::::::::::::::::::::::::::::::::::::::::

optimized geometry written to: xtbopt.xyz


           -------------------------------------------------
          | TOTAL ENERGY              -11.123822860707 Eh   |
          | TOTAL ENTHALPY            -11.105026949716 Eh   |
          | TOTAL FREE ENERGY         -11.105585740014 Eh   |
          | GRADIENT NORM               0.000898373382 Eh/α |
          | HOMO-LUMO GAP               1.783038227030 eV   |
           -------------------------------------------------

------------------------------------------------------------------------
 * finished run on 2020/05/12 at 11:44:02.499     
------------------------------------------------------------------------
 total:
 * wall-time:     0 d,  0 h,  0 min,  0.239 sec
 *  cpu-time:     0 d,  0 h,  0 min,  0.238 sec
 * ratio c/w:     0.999 speedup
 SCF:
 * wall-time:     0 d,  0 h,  0 min,  0.006 sec
 *  cpu-time:     0 d,  0 h,  0 min,  0.006 sec
 * ratio c/w:     1.000 speedup
 ANC optimizer:
 * wall-time:     0 d,  0 h,  0 min,  0.124 sec
 *  cpu-time:     0 d,  0 h,  0 min,  0.123 sec
 * ratio c/w:     1.000 speedup
 numerical hessian:
 * wall-time:     0 d,  0 h,  0 min,  0.095 sec
 *  cpu-time:     0 d,  0 h,  0 min,  0.095 sec
 * ratio c/w:     0.999 speedup

