 Entering Gaussian System
 *********************************************
 Gaussian 98:
 frequency output generated by the xtb code
 *********************************************
                         Standard orientation:
 --------------------------------------------------------------------
  Center     Atomic     Atomic              Coordinates (Angstroms)
  Number     Number      Type              X           Y           Z
 --------------------------------------------------------------------
    1          6             0       -1.521336   -0.711473    0.175919
    2          6             0       -0.258058    0.061395    0.042208
    3          7             0        1.022867    0.013259   -0.137782
    4          6             0       -1.430224    0.686089    0.228985
    5          6             0        2.186751   -0.049272   -0.309328
 --------------------------------------------------------------------
     1 basis functions        1 primitive gaussians
     1 alpha electrons        1 beta electrons

 Harmonic frequencies (cm**-1), IR intensities (KM/Mole),
 Raman scattering activities (A**4/amu), Raman depolarization ratios,
 reduced masses (AMU), force constants (mDyne/A) and normal coordinates:
                      1                      2                      3
                        a                      a                      a 
 Frequencies --   187.5101               193.2304               444.5807
 Red. masses --    12.7243                12.3995                12.9715
 Frc consts  --     0.0000                 0.0000                 0.0000
 IR Inten    --     0.3718                 0.3564                 0.1900
 Raman Activ --     0.0000                 0.0000                 0.0000
 Depolar     --     0.0000                 0.0000                 0.0000
 Atom AN      X      Y      Z        X      Y      Z        X      Y      Z
   1   6    -0.02   0.01  -0.19     0.35  -0.18  -0.06     0.37  -0.03  -0.05
   2   6     0.06  -0.01   0.42     0.00   0.43   0.01    -0.00   0.52   0.03
   3   7     0.08  -0.02   0.59    -0.01   0.44   0.01    -0.08  -0.69  -0.02
   4   6    -0.04   0.01  -0.29    -0.28  -0.14   0.04    -0.25   0.03   0.03
   5   6    -0.09   0.02  -0.57    -0.06  -0.59  -0.01    -0.03   0.22   0.01
                      4                      5                      6
                        a                      a                      a 
 Frequencies --   489.0062               730.7397              1010.8809
 Red. masses --    12.6234                12.3048                12.1301
 Frc consts  --     0.0000                 0.0000                 0.0000
 IR Inten    --     0.4052                 0.1152                 0.2199
 Raman Activ --     0.0000                 0.0000                 0.0000
 Depolar     --     0.0000                 0.0000                 0.0000
 Atom AN      X      Y      Z        X      Y      Z        X      Y      Z
   1   6     0.02  -0.01   0.14     0.60  -0.03  -0.08     0.31   0.21  -0.03
   2   6    -0.11   0.04  -0.78    -0.09  -0.31  -0.01    -0.31  -0.45   0.02
   3   7     0.08  -0.03   0.55    -0.38   0.05   0.05     0.24  -0.00  -0.03
   4   6     0.02  -0.01   0.19     0.33   0.27  -0.03    -0.57   0.27   0.09
   5   6    -0.02   0.01  -0.15    -0.44   0.01   0.06     0.30  -0.03  -0.05
                      7                      8                      9
                        a                      a                      a 
 Frequencies --  1229.4754              1810.2943              2099.1290
 Red. masses --    12.0542                12.0131                13.0928
 Frc consts  --     0.0000                 0.0000                 0.0000
 IR Inten    --     0.3233                 0.3270                 0.2800
 Raman Activ --     0.0000                 0.0000                 0.0000
 Depolar     --     0.0000                 0.0000                 0.0000
 Atom AN      X      Y      Z        X      Y      Z        X      Y      Z
   1   6     0.14   0.66   0.01    -0.13  -0.28   0.00     0.00   0.05   0.00
   2   6     0.39  -0.15  -0.06     0.71  -0.14  -0.10    -0.18   0.03   0.03
   3   7    -0.15   0.00   0.02     0.03  -0.00  -0.01     0.73  -0.04  -0.11
   4   6    -0.19  -0.53   0.00    -0.37   0.41   0.07     0.03  -0.07  -0.01
   5   6    -0.18   0.01   0.03    -0.25   0.01   0.04    -0.64   0.03   0.09
