5
 energy: -11.123822860424 gnorm: 0.000898453885 xtb: 6.2.2 (9d81278992624c895f80dd42a50cac0aa55982e2)
C        -1.52133608715264   -0.71147288423490    0.17591912066163
C        -0.25805774715453    0.06139536207774    0.04220787157400
N         1.02286726450666    0.01325914782341   -0.13778242237137
C        -1.43022419766377    0.68608946352707    0.22898476808505
C         2.18675076746254   -0.04927208919158   -0.30932833794757
