$hessian                                                                        
        0.1832638104   0.1387452026  -0.0178734490  -0.1564522458  -0.0771435703
        0.0156004154  -0.0418611180  -0.0130211046   0.0062487430   0.0083142594
       -0.0485343980  -0.0028644864   0.0067352940  -0.0000461297  -0.0011112230
        0.1387452026   0.4407357971   0.0018138124  -0.1631060212  -0.0494501828
        0.0202721574   0.0237600608  -0.0015363224  -0.0037200889   0.0115823900
       -0.3902923244  -0.0199770654  -0.0109816323   0.0005430325   0.0016111844
       -0.0178734490   0.0018138124   0.0052468357   0.0116862519   0.0086619408
       -0.0144284861   0.0077089250   0.0013108207   0.0060868703  -0.0000309807
       -0.0118929686   0.0033160039  -0.0014907472   0.0001063947  -0.0002212237
       -0.1564522458  -0.1631060212   0.0116862519   0.9671313545  -0.1275370077
       -0.1287069134  -0.3167925895   0.0105638883   0.0374664790  -0.3751223918
        0.2735288419   0.0608070680  -0.1187641275   0.0065502987   0.0187471145
       -0.0771435703  -0.0494501828   0.0086619408  -0.1275370077   0.1908227451
        0.0229178989   0.0228438248  -0.0366340650  -0.0027664070   0.1784169248
       -0.1133879710  -0.0283730644   0.0034198284   0.0086494738  -0.0004403683
        0.0156004154   0.0202721574  -0.0144284861  -0.1287069134   0.0229178989
        0.0882913243   0.0386676827  -0.0009826341  -0.0519097675   0.0562941840
       -0.0412768592  -0.0279787619   0.0181446312  -0.0009305631   0.0060256912
       -0.0418611180   0.0237600608   0.0077089250  -0.3167925895   0.0228438248
        0.0386676827   1.3293184061  -0.0648235374  -0.1861791926  -0.0546336595
       -0.0287854825   0.0073592952  -0.9160310392   0.0470051343   0.1324432897
       -0.0130211046  -0.0015363224   0.0013108207   0.0105638883  -0.0366340650
       -0.0009826341  -0.0648235374   0.0577402798   0.0098263375   0.0187719267
        0.0023541247  -0.0028407964   0.0485088270  -0.0219240172  -0.0073137278
        0.0062487430  -0.0037200889   0.0060868703   0.0374664790  -0.0027664070
       -0.0519097675  -0.1861791926   0.0098263375   0.0726018521   0.0096705816
        0.0037720140   0.0083960129   0.1327933891  -0.0071118556  -0.0351749678
        0.0083142594   0.0115823900  -0.0000309807  -0.3751223918   0.1784169248
        0.0562941840  -0.0546336595   0.0187719267   0.0096705816   0.4117848969
       -0.2082864799  -0.0644824609   0.0096568950  -0.0004847615  -0.0014513240
       -0.0485343980  -0.3902923244  -0.0118929686   0.2735288419  -0.1133879710
       -0.0412768592  -0.0287854825   0.0023541247   0.0037720140  -0.2082864799
        0.5015974425   0.0511701820   0.0120775185  -0.0002712718  -0.0017723682
       -0.0028644864  -0.0199770654   0.0033160039   0.0608070680  -0.0283730644
       -0.0279787619   0.0073592952  -0.0028407964   0.0083960129  -0.0644824609
        0.0511701820   0.0165326273  -0.0008194159   0.0000207442  -0.0002658823
        0.0067352940  -0.0109816323  -0.0014907472  -0.1187641275   0.0034198284
        0.0181446312  -0.9160310392   0.0485088270   0.1327933891   0.0096568950
        0.0120775185  -0.0008194159   1.0184029777  -0.0530245417  -0.1486278573
       -0.0000461297   0.0005430325   0.0001063947   0.0065502987   0.0086494738
       -0.0009305631   0.0470051343  -0.0219240172  -0.0071118556  -0.0004847615
       -0.0002712718   0.0000207442  -0.0530245417   0.0130027826   0.0079152799
       -0.0011112230   0.0016111844  -0.0002212237   0.0187471145  -0.0004403683
        0.0060256912   0.1324432897  -0.0073137278  -0.0351749678  -0.0014513240
       -0.0017723682  -0.0002658823  -0.1486278573   0.0079152799   0.0296363827
