3
 energy: -3.807707033284 gnorm: 0.037207289357 xtb: 6.2.2 (9d81278992624c895f80dd42a50cac0aa55982e2)
N        -0.00160500000000    0.41562400000000    0.00000000000000
H        -0.83712600000000   -0.21104800000000    0.00000000000000
H         0.83873100000000   -0.20457600000000    0.00000000000000
3
 energy: -3.808749272798 gnorm: 0.013098589948 xtb: 6.2.2 (9d81278992624c895f80dd42a50cac0aa55982e2)
N        -0.00155764544278    0.40334570819268   -0.00000000000000
H        -0.82505188084184   -0.20486211121176   -0.00000000000000
H         0.82660952628462   -0.19848359698092    0.00000000000000
3
 energy: -3.808915299126 gnorm: 0.001724652987 xtb: 6.2.2 (9d81278992624c895f80dd42a50cac0aa55982e2)
N        -0.00151252747476    0.39165397595303   -0.00000000000000
H        -0.82510146713303   -0.19901633772565   -0.00000000000000
H         0.82661399460780   -0.19263763822737    0.00000000000000
3
 energy: -3.808925391317 gnorm: 0.000200658302 xtb: 6.2.2 (9d81278992624c895f80dd42a50cac0aa55982e2)
N        -0.00149939620564    0.38825696947932    0.00000000000000
H        -0.82964629425944   -0.19733536572278   -0.00000000000000
H         0.83114569046509   -0.19092160375654    0.00000000000000
3
 energy: -3.808925498906 gnorm: 0.000018797358 xtb: 6.2.2 (9d81278992624c895f80dd42a50cac0aa55982e2)
N        -0.00150044196157    0.38852739540480    0.00000000000000
H        -0.82921766691843   -0.19746892484300   -0.00000000000000
H         0.83071810888000   -0.19105847056180    0.00000000000000
