$hessian                                                                        
        0.5529826790   0.0010190300  -0.0000019321  -0.2751537993  -0.1946538382
        0.0000013002  -0.2778288797   0.1936348082   0.0000006319
        0.0010190300   0.2886121701  -0.0000005073  -0.1535245785  -0.1456447729
        0.0000007901   0.1525055485  -0.1429673973  -0.0000002828
       -0.0000019321  -0.0000005073   0.0000000000   0.0000012284   0.0000009337
       -0.0000000000   0.0000007036  -0.0000004264  -0.0000000000
       -0.2751537993  -0.1535245785   0.0000012284   0.3018652379   0.1742082172
       -0.0000013578  -0.0267114386  -0.0206836387   0.0000001293
       -0.1946538382  -0.1456447729   0.0000009337   0.1742082172   0.1416576110
       -0.0000008553   0.0204456210   0.0039871619  -0.0000000783
        0.0000013002   0.0000007901  -0.0000000000  -0.0000013578  -0.0000008553
        0.0000000000   0.0000000576   0.0000000652  -0.0000000000
       -0.2778288797   0.1525055485   0.0000007036  -0.0267114386   0.0204456210
        0.0000000576   0.3045403184  -0.1729511695  -0.0000007612
        0.1936348082  -0.1429673973  -0.0000004264  -0.0206836387   0.0039871619
        0.0000000652  -0.1729511695   0.1389802354   0.0000003612
        0.0000006319  -0.0000002828  -0.0000000000   0.0000001293  -0.0000000783
       -0.0000000000  -0.0000007612   0.0000003612   0.0000000000
