 Entering Gaussian System
 *********************************************
 Gaussian 98:
 frequency output generated by the xtb code
 *********************************************
                         Standard orientation:
 --------------------------------------------------------------------
  Center     Atomic     Atomic              Coordinates (Angstroms)
  Number     Number      Type              X           Y           Z
 --------------------------------------------------------------------
    1          7             0       -0.001498    0.388527   -0.000001
    2          1             0       -0.829219   -0.197465    0.000003
    3          1             0        0.830717   -0.191063   -0.000003
 --------------------------------------------------------------------
     1 basis functions        1 primitive gaussians
     1 alpha electrons        1 beta electrons

 Harmonic frequencies (cm**-1), IR intensities (KM/Mole),
 Raman scattering activities (A**4/amu), Raman depolarization ratios,
 reduced masses (AMU), force constants (mDyne/A) and normal coordinates:
                      1                      2                      3
                        a                      a                      a 
 Frequencies --  1297.8500              3360.4244              3444.7019
 Red. masses --     2.1935                 1.4579                 2.1508
 Frc consts  --     0.0000                 0.0000                 0.0000
 IR Inten    --     0.4501                 0.1065                 0.0438
 Raman Activ --     0.0000                 0.0000                 0.0000
 Depolar     --     0.0000                 0.0000                 0.0000
 Atom AN      X      Y      Z        X      Y      Z        X      Y      Z
   1   7    -0.00   0.30  -0.00     0.00  -0.19   0.00     0.30   0.00  -0.00
   2   1     0.37  -0.56  -0.00     0.60   0.35  -0.00    -0.55  -0.39   0.00
   3   1    -0.37  -0.56   0.00    -0.60   0.34   0.00    -0.55   0.39   0.00
