[Molden Format]
[Title]
[Atoms] AU
N      1     7 -0.28315797984592E-02  0.73421031594437E+00 -0.12715412183505E-05
H      2     1 -0.15669960966306E+01 -0.37315394668781E+00  0.61211322488884E-05
H      3     1  0.15698276764291E+01 -0.36105636925656E+00 -0.48495910305421E-05
[GTO]
           1 0
 s           4   1.0000000000000000     
   63.594024466941008      -0.19234388414721629     
   10.951417231523665      -0.23478107924953728     
  0.87999310257376984       0.37593753901700888     
  0.33538715296521110       0.14982889271862770     
 p           4   1.0000000000000000     
   7.2965040481495080       0.97658666315667420     
   1.8918745450712575       0.90372226730345739     
  0.66694432110824120       0.47404958461536373     
  0.26552202674130870        7.1516067715011844E-002

           2 0
 s           3   1.0000000000000000     
   3.3702276975336001       0.27359110588908298     
  0.61389118221497996       0.26460540653860526     
  0.16614291148415999        8.2465947534082318E-002

           3 0
 s           3   1.0000000000000000     
   3.3702276975336001       0.27359110588908298     
  0.61389118221497996       0.26460540653860526     
  0.16614291148415999        8.2465947534082318E-002

[MO]
Sym=     1a
Ene=  -0.60320144812112042     
Spin= Alpha
Occup=     2.00000000
           1  0.66567027749469598     
           2   6.4039582016822227E-004
           3 -0.16597245550201448     
           4   3.0436173374250357E-007
           5  0.27130974889738380     
           6  0.27131014229858574     
Sym=     2a
Ene=  -0.50996069828517410     
Spin= Alpha
Occup=     2.00000000
           1   3.2169741741268999E-007
           2 -0.64243332895899352     
           3  -2.4777301811967976E-003
           4   2.7199683984989216E-006
           5  0.38946793067965324     
           6 -0.38946767734760601     
Sym=     3a
Ene=  -0.42622350203438342     
Spin= Alpha
Occup=     1.89666906
           1 -0.53635270736615515     
           2   3.1183447114728519E-003
           3 -0.80856431959428032     
           4   1.5572014426433247E-006
           5  0.18424073428630697     
           6  0.18424075029200490     
Sym=     4a
Ene=  -0.42211789304131903     
Spin= Alpha
Occup=     1.10333094
           1  -8.3154745370146126E-008
           2  -3.7356763261923150E-006
           3  -1.8677940765073107E-006
           4  -1.0000000000406248     
           5   2.7689205164135388E-007
           6  -1.9204041479425060E-007
Sym=     5a
Ene=    7.2623833627355486E-002
Spin= Alpha
Occup=     0.00000000
           1  0.87712053625758657     
           2   2.6767997448992388E-003
           3 -0.69409482367179265     
           4   1.1903566040698417E-006
           5 -0.76242067322506357     
           6 -0.76242053559360146     
Sym=     6a
Ene=   0.19705409449926711     
Spin= Alpha
Occup=     0.00000000
           1  -7.0795622149670231E-008
           2  -1.0108305211458679     
           3  -3.8983474359591480E-003
           4   3.4774313073635924E-006
           5 -0.86782541317245110     
           6  0.86782552106472355     
