5
 energy: -10.817435528813 gnorm: 0.194608138612 xtb: 6.2.2 (9d81278992624c895f80dd42a50cac0aa55982e2)
N        -0.93397000000000    1.26305300000000    0.01232200000000
C        -0.21830600000000    0.00080500000000   -0.00035500000000
C         1.07966600000000    0.00460300000000    0.76565500000000
C        -1.00960600000000   -1.28985300000000   -0.01586400000000
C         1.08221600000000    0.02139200000000   -0.76175800000000
5
 energy: -10.858425073867 gnorm: 0.194178615218 xtb: 6.2.2 (9d81278992624c895f80dd42a50cac0aa55982e2)
N        -0.88953794228343    1.19538560384368    0.01165200275864
C        -0.26539232028069   -0.00361053312071   -0.00048148742819
C         1.06238667189116    0.00885311696963    0.72899044470416
C        -0.97227008122842   -1.22546452343184   -0.01509406631105
C         1.06481367190138    0.02483633573925   -0.72506689372356
5
 energy: -10.745865784443 gnorm: 0.755599249147 xtb: 6.2.2 (9d81278992624c895f80dd42a50cac0aa55982e2)
N        -0.74394934376619    1.04277496126876    0.01021639592343
C        -0.48697973979409   -0.01045532034017   -0.00092488267549
C         1.04998275534521    0.02742991200582    0.55229513961848
C        -0.87087207367721   -1.09927704544614   -0.01353776262805
C         1.05181840189228    0.03952749251174   -0.54804889023837
5
 energy: -10.901428185584 gnorm: 0.076517386126 xtb: 6.2.2 (9d81278992624c895f80dd42a50cac0aa55982e2)
N        -0.79541346624308    1.17697427470463    0.01160447271453
C        -0.41405758733641   -0.01024839124642   -0.00079971523493
C         1.05636769921259    0.01903653935741    0.65189594867368
C        -0.90543141636251   -1.21908877705763   -0.01491265193584
C         1.05853477072940    0.03332635424200   -0.64778805421744
5
 energy: -10.909517603999 gnorm: 0.047552591464 xtb: 6.2.2 (9d81278992624c895f80dd42a50cac0aa55982e2)
N        -0.77049514014260    1.23321149544335    0.01226000483569
C        -0.45508128551568    0.01828575512043   -0.00055653808830
C         1.03417128942574    0.00143175112844    0.64134800077896
C        -0.84490246771718   -1.26844198821028   -0.01534736407165
C         1.03630760394972    0.01551298651807   -0.63770410345470
5
 energy: -10.917662086622 gnorm: 0.112138712463 xtb: 6.2.2 (9d81278992624c895f80dd42a50cac0aa55982e2)
N        -0.75482988765596    1.36751315077909    0.01371212534216
C        -0.56667803813443    0.11123448070060    0.00026137246414
C         0.98771110303621   -0.07238697843007    0.62722670613821
C        -0.65604453508652   -1.34797079974602   -0.01583287810683
C         0.98984135784070   -0.05838985330360   -0.62536732583768
5
 energy: -10.930396757251 gnorm: 0.105444371427 xtb: 6.2.2 (9d81278992624c895f80dd42a50cac0aa55982e2)
N        -0.83074659627028    1.38274399939490    0.01355901510811
C        -0.57711831446668    0.16730653864521    0.00064694156399
C         1.00422545275370   -0.12298078406525    0.62599246887712
C        -0.60307926422934   -1.31915695522041   -0.01497498567762
C         1.00671872221259   -0.10791279875444   -0.62522343987160
5
 energy: -10.942765174980 gnorm: 0.120650572349 xtb: 6.2.2 (9d81278992624c895f80dd42a50cac0aa55982e2)
N        -0.91318333688217    1.41510079740526    0.01257348064688
C        -0.59537086433113    0.23247505428266   -0.00134498617212
C         1.01325010353870   -0.18955101755761    0.61903050167027
C        -0.52472269611451   -1.29283624714446   -0.01015840229086
C         1.02002679378911   -0.16518858698584   -0.62010059385417
5
 energy: -10.989077892320 gnorm: 0.177717469312 xtb: 6.2.2 (9d81278992624c895f80dd42a50cac0aa55982e2)
N        -1.15513770141438    1.41607658741825    0.00027325903312
C        -0.58789217676024    0.35895246981670   -0.03928982208190
C         1.03589997913597   -0.38477650070957    0.61097204396516
C        -0.40330379529520   -1.15218697261709    0.05227739428741
C         1.11043369433386   -0.23806558390829   -0.62423287520378
5
 energy: -11.026234267669 gnorm: 0.235856219834 xtb: 6.2.2 (9d81278992624c895f80dd42a50cac0aa55982e2)
N        -1.43635803961313    1.35310646755081   -0.01204233813069
C        -0.54584425541184    0.46756458546291   -0.08311532350583
C         1.05611387173306   -0.59214750160462    0.61367685624898
C        -0.30031839350214   -0.92670877446981    0.12867019271426
C         1.22640681679406   -0.30181477693930   -0.64718938732672
5
 energy: -11.044359173711 gnorm: 0.114558225267 xtb: 6.2.2 (9d81278992624c895f80dd42a50cac0aa55982e2)
N        -1.41148497008837    1.26086864235482   -0.01907456471333
C        -0.59001667123293    0.46871152244894   -0.03834002842479
C         1.03794441721860   -0.58726708077688    0.63293949274399
C        -0.22932483792049   -0.80936793481534    0.10241354128755
C         1.19288206202320   -0.33294514921153   -0.67793844089341
5
 energy: -10.940251865593 gnorm: 0.861668339272 xtb: 6.2.2 (9d81278992624c895f80dd42a50cac0aa55982e2)
N        -1.54148122254351    1.36639645824908   -0.03015506290019
C        -0.75890767809430    0.66887619805024   -0.04153547277294
C         1.06079764017465   -0.76652702221072    0.61179760990483
C         0.04527836590760   -0.78748991554939    0.11008170293791
C         1.19431289455556   -0.48125571853921   -0.65018877716962
5
 energy: -11.061986962664 gnorm: 0.154965309337 xtb: 6.2.2 (9d81278992624c895f80dd42a50cac0aa55982e2)
N        -1.57889443375463    1.38522006636015   -0.06193072468923
C        -0.73559388528163    0.60689519687921   -0.07107498435808
C         1.15146723946245   -0.78178952894881    0.62030135043454
C        -0.09634828180512   -0.83269252629987    0.14871735809623
C         1.25936936137893   -0.37763320799068   -0.63601299948346
5
 energy: -11.054646532186 gnorm: 0.387353261994 xtb: 6.2.2 (9d81278992624c895f80dd42a50cac0aa55982e2)
N        -1.68561861827274    1.15960532021417   -0.10117553892552
C        -0.64205763301681    0.54690876229979    0.01781690336680
C         1.11764621185883   -0.83759346575297    0.65544023526281
C        -0.07220981706107   -0.49874356747200    0.15277009305823
C         1.28223985649180   -0.37017704928898   -0.72485169276233
5
 energy: -11.105453129431 gnorm: 0.121253138366 xtb: 6.2.2 (9d81278992624c895f80dd42a50cac0aa55982e2)
N        -1.69783445268928    1.25539155797773   -0.11534075983698
C        -0.77107716317009    0.59449275087543   -0.02067617276243
C         1.20435697228976   -0.88657052209241    0.64043194493714
C        -0.04112159426119   -0.59442577193105    0.16745552634362
C         1.30567623783079   -0.36888801482969   -0.67187053868135
5
 energy: -11.122519142493 gnorm: 0.097291869432 xtb: 6.2.2 (9d81278992624c895f80dd42a50cac0aa55982e2)
N        -1.71853931094889    1.27893187746837   -0.12567288909156
C        -0.85695115968052    0.53108378504049   -0.03441636859323
C         1.25432665284789   -0.90691495159112    0.62738532364773
C        -0.00920988491844   -0.54581814274578    0.17702566817578
C         1.33037370269995   -0.35728256817196   -0.64432173413872
5
 energy: -11.135394568795 gnorm: 0.120283419914 xtb: 6.2.2 (9d81278992624c895f80dd42a50cac0aa55982e2)
N        -1.82378220647226    1.28759448215063   -0.16786554460399
C        -0.93641783593788    0.51199024479364    0.00837674225619
C         1.29036858458726   -1.01633718133410    0.61527617532202
C         0.11979253801977   -0.39932189113223    0.18665616039612
C         1.35003891980312   -0.38392565447795   -0.64244353337033
5
 energy: -11.103032622152 gnorm: 0.327255089929 xtb: 6.2.2 (9d81278992624c895f80dd42a50cac0aa55982e2)
N        -1.69858463624677    1.35348615440840   -0.04589660838595
C        -1.09866966070726    0.27492372457348   -0.09783335405604
C         1.26624537995752   -0.81621809822324    0.59048375260981
C         0.13441370624158   -0.38262651030760    0.16028970646007
C         1.39659521075492   -0.42956527045104   -0.60704349662789
5
 energy: -11.123045258282 gnorm: 0.391174724660 xtb: 6.2.2 (9d81278992624c895f80dd42a50cac0aa55982e2)
N        -1.74432083133251    1.19406936139221   -0.05929996513555
C        -1.05099370275037    0.38485288688526   -0.04026564533925
C         1.23985444091366   -0.85387625988712    0.62813763580160
C         0.15017738805810   -0.25998607212068    0.15059206264636
C         1.40528270511112   -0.46505991626966   -0.67916408797315
5
 energy: -11.141529581308 gnorm: 0.103241363120 xtb: 6.2.2 (9d81278992624c895f80dd42a50cac0aa55982e2)
N        -1.77136583818348    1.27145454851426   -0.12355306646180
C        -0.94836791334334    0.43721116836936   -0.00707894671536
C         1.26031264873511   -0.92721169473431    0.63306685335532
C         0.09736222459438   -0.38291511735638    0.16843076885693
C         1.36205887819733   -0.39853890479293   -0.67086560903509
5
 energy: -11.145579183500 gnorm: 0.065119500100 xtb: 6.2.2 (9d81278992624c895f80dd42a50cac0aa55982e2)
N        -1.84825184450549    1.24045915610413   -0.07920016017142
C        -1.00447442520713    0.43047581486873   -0.02403956425383
C         1.23233976401153   -0.94210652167319    0.61791794925015
C         0.19300952766554   -0.24401771817718    0.17143846346458
C         1.42737697803556   -0.48481073112249   -0.68611668828947
5
 energy: -11.147887216609 gnorm: 0.023509813126 xtb: 6.2.2 (9d81278992624c895f80dd42a50cac0aa55982e2)
N        -1.81865917151453    1.23392927809560   -0.09979702239346
C        -1.00382701413105    0.42929259066674    0.01284044567502
C         1.23269471373253   -0.93025145786733    0.61794200518396
C         0.17205213135680   -0.26385338314762    0.15272168499182
C         1.41773934055625   -0.46911702774739   -0.68370711345734
5
 energy: -11.148609690561 gnorm: 0.031497083541 xtb: 6.2.2 (9d81278992624c895f80dd42a50cac0aa55982e2)
N        -1.85720128028571    1.19193212374046   -0.01841603164714
C        -0.96431765555810    0.47492171133803   -0.06237825100197
C         1.20340721764005   -0.91850750255932    0.64510235323560
C         0.18026861677983   -0.23203548795653    0.10365113947762
C         1.43784310142393   -0.51631084456263   -0.66795921006411
5
 energy: -11.150397949692 gnorm: 0.023080683850 xtb: 6.2.2 (9d81278992624c895f80dd42a50cac0aa55982e2)
N        -1.88004615375348    1.17264951414388   -0.04722585308134
C        -0.95417465609650    0.49409114807294   -0.01530270036609
C         1.19002379898646   -0.94400667105990    0.63479052646598
C         0.20171904706972   -0.19933593524740    0.09401683279391
C         1.44247796379380   -0.52339805590951   -0.66627880581247
5
 energy: -11.151010365502 gnorm: 0.036191381110 xtb: 6.2.2 (9d81278992624c895f80dd42a50cac0aa55982e2)
N        -1.92081125297526    1.15129477494646   -0.05590847379433
C        -0.94139366245234    0.53014709009548    0.01918885213016
C         1.17249128444780   -0.96124696714259    0.63438900500550
C         0.22616143383118   -0.17474080283356    0.06389804157801
C         1.46355219714863   -0.54545409506576   -0.66156742491935
5
 energy: -11.151240619245 gnorm: 0.004772751043 xtb: 6.2.2 (9d81278992624c895f80dd42a50cac0aa55982e2)
N        -1.90404292921491    1.15999213955260   -0.05490306431072
C        -0.94995244637375    0.51983163601718    0.01731726834512
C         1.17621502094775   -0.94859422934106    0.63649571291533
C         0.21633125270356   -0.19329094991011    0.06382579585095
C         1.46144910193735   -0.53793859631860   -0.66273571280068
5
 energy: -11.151353712026 gnorm: 0.005851840458 xtb: 6.2.2 (9d81278992624c895f80dd42a50cac0aa55982e2)
N        -1.91295378951497    1.14805154224619   -0.04318085236597
C        -0.94407715722952    0.52756044519596    0.00504208375174
C         1.16519652567902   -0.95328744749963    0.63745530665387
C         0.22594385391566   -0.17394848542721    0.06294280977449
C         1.46589056714980   -0.54837605451531   -0.66225934781414
5
 energy: -11.151403243811 gnorm: 0.004344292407 xtb: 6.2.2 (9d81278992624c895f80dd42a50cac0aa55982e2)
N        -1.92065400516498    1.13920793654566   -0.03908404711497
C        -0.93984568181408    0.53645083480186    0.00624874629973
C         1.15635146302894   -0.95515536848855    0.63831857616962
C         0.23294463577493   -0.16471787440744    0.05555451509947
C         1.47120358817520   -0.55578552845152   -0.66103779045385
5
 energy: -11.151411897386 gnorm: 0.000694465516 xtb: 6.2.2 (9d81278992624c895f80dd42a50cac0aa55982e2)
N        -1.92203474274522    1.13581806366899   -0.03813223973310
C        -0.93847913523998    0.53927867360897    0.00732449122079
C         1.15277207543718   -0.95513267781062    0.63827581641656
C         0.23526210581993   -0.16215854752030    0.05303341857522
C         1.47247969672810   -0.55780551194703   -0.66050148647949
5
 energy: -11.151412441846 gnorm: 0.000411092271 xtb: 6.2.2 (9d81278992624c895f80dd42a50cac0aa55982e2)
N        -1.92283172198933    1.13442490800113   -0.03671253082698
C        -0.93754557042405    0.54065589675378    0.00619360691419
C         1.15178354321435   -0.95495320606178    0.63848107914140
C         0.23574848775675   -0.16124260378665    0.05205903950878
C         1.47284526144228   -0.55888499490647   -0.66002119473740
