 Entering Gaussian System
 *********************************************
 Gaussian 98:
 frequency output generated by the xtb code
 *********************************************
                         Standard orientation:
 --------------------------------------------------------------------
  Center     Atomic     Atomic              Coordinates (Angstroms)
  Number     Number      Type              X           Y           Z
 --------------------------------------------------------------------
    1          7             0       -1.922826    1.134435   -0.036708
    2          6             0       -0.937543    0.540661    0.006196
    3          6             0        1.151781   -0.954958    0.638479
    4          6             0        0.235748   -0.161244    0.052058
    5          6             0        1.472840   -0.558894   -0.660025
 --------------------------------------------------------------------
     1 basis functions        1 primitive gaussians
     1 alpha electrons        1 beta electrons

 Harmonic frequencies (cm**-1), IR intensities (KM/Mole),
 Raman scattering activities (A**4/amu), Raman depolarization ratios,
 reduced masses (AMU), force constants (mDyne/A) and normal coordinates:
                      1                      2                      3
                        a                      a                      a 
 Frequencies --   190.3117               201.8215               499.7607
 Red. masses --    12.5306                12.5056                12.1797
 Frc consts  --     0.0000                 0.0000                 0.0000
 IR Inten    --     0.4560                 0.5393                 0.2668
 Raman Activ --     0.0000                 0.0000                 0.0000
 Depolar     --     0.0000                 0.0000                 0.0000
 Atom AN      X      Y      Z        X      Y      Z        X      Y      Z
   1   7     0.14   0.14  -0.47    -0.23  -0.40  -0.19    -0.02  -0.11   0.27
   2   6    -0.05  -0.12   0.31     0.23   0.40   0.19     0.21   0.21  -0.73
   3   6     0.32  -0.12  -0.13    -0.14  -0.26  -0.12     0.16  -0.11   0.05
   4   6    -0.10  -0.18   0.50     0.27   0.47   0.22    -0.07  -0.13   0.38
   5   6    -0.32   0.27  -0.17    -0.11  -0.18  -0.09    -0.27   0.16   0.01
                      4                      5                      6
                        a                      a                      a 
 Frequencies --   546.2344               706.0212               941.4522
 Red. masses --    12.1242                12.4997                12.1710
 Frc consts  --     0.0000                 0.0000                 0.0000
 IR Inten    --     0.0305                 0.0560                 0.3142
 Raman Activ --     0.0000                 0.0000                 0.0000
 Depolar     --     0.0000                 0.0000                 0.0000
 Atom AN      X      Y      Z        X      Y      Z        X      Y      Z
   1   7     0.11   0.19   0.09    -0.43   0.25   0.01     0.24  -0.15   0.02
   2   6    -0.32  -0.55  -0.25    -0.31   0.21  -0.08     0.17  -0.10  -0.01
   3   6    -0.06  -0.11  -0.05     0.33  -0.10  -0.21    -0.46   0.36  -0.22
   4   6     0.31   0.54   0.24    -0.07  -0.08   0.28    -0.32  -0.01   0.45
   5   6    -0.05  -0.08  -0.04     0.51  -0.30   0.00     0.35  -0.09  -0.24
                      7                      8                      9
                        a                      a                      a 
 Frequencies --  1204.1227              1792.9495              2300.1604
 Red. masses --    12.0806                12.0711                12.7710
 Frc consts  --     0.0000                 0.0000                 0.0000
 IR Inten    --     0.6536                 0.2892                 0.7763
 Raman Activ --     0.0000                 0.0000                 0.0000
 Depolar     --     0.0000                 0.0000                 0.0000
 Atom AN      X      Y      Z        X      Y      Z        X      Y      Z
   1   7     0.16  -0.10   0.01    -0.15   0.09  -0.01     0.53  -0.32   0.02
   2   6     0.11  -0.06   0.00    -0.00   0.00   0.00    -0.67   0.40  -0.03
   3   6     0.26   0.07  -0.50    -0.24   0.32  -0.41     0.00   0.01  -0.03
   4   6    -0.39   0.27  -0.09     0.59  -0.39   0.12     0.09  -0.06   0.01
   5   6    -0.15  -0.17   0.58    -0.19  -0.03   0.30    -0.00  -0.01   0.03
