 Entering Gaussian System
 *********************************************
 Gaussian 98:
 frequency output generated by the xtb code
 *********************************************
                         Standard orientation:
 --------------------------------------------------------------------
  Center     Atomic     Atomic              Coordinates (Angstroms)
  Number     Number      Type              X           Y           Z
 --------------------------------------------------------------------
    1          6             0       -0.051511   -0.001356    0.000000
    2          6             0        1.266668    0.003951   -0.000004
    3          8             0       -1.215157   -0.002595    0.000004
 --------------------------------------------------------------------
     1 basis functions        1 primitive gaussians
     1 alpha electrons        1 beta electrons

 Harmonic frequencies (cm**-1), IR intensities (KM/Mole),
 Raman scattering activities (A**4/amu), Raman depolarization ratios,
 reduced masses (AMU), force constants (mDyne/A) and normal coordinates:
                      1                      2                      3
                        a                      a                      a 
 Frequencies --   251.6610               252.2480              1242.3020
 Red. masses --    12.6034                12.6017                13.4207
 Frc consts  --     0.0000                 0.0000                 0.0000
 IR Inten    --     0.8566                 0.8564                 0.4117
 Raman Activ --     0.0000                 0.0000                 0.0000
 Depolar     --     0.0000                 0.0000                 0.0000
 Atom AN      X      Y      Z        X      Y      Z        X      Y      Z
   1   6     0.00  -0.83   0.00    -0.00  -0.00  -0.84    -0.11  -0.00  -0.00
   2   6    -0.00   0.39  -0.00     0.00   0.00   0.39     0.80   0.00  -0.00
   3   8     0.00   0.39  -0.00     0.00   0.00   0.38    -0.59  -0.00   0.00
                      4
                        a 
 Frequencies --  2105.8246
 Red. masses --    12.9949
 Frc consts  --     0.0000
 IR Inten    --     1.7119
 Raman Activ --     0.0000
 Depolar     --     0.0000
 Atom AN      X      Y      Z        X      Y      Z        X      Y      Z
   1   6     0.83   0.00  -0.00
   2   6    -0.26  -0.00   0.00
   3   8    -0.50  -0.00   0.00
