3
 energy: -8.011341391536 gnorm: 0.331381766431 xtb: 6.2.2 (9d81278992624c895f80dd42a50cac0aa55982e2)
C        -0.05868500000000    0.55749800000000    0.00000000000000
C         1.21678500000000   -0.25820600000000    0.00000000000000
O        -1.15810000000000   -0.29929200000000    0.00000000000000
3
 energy: -8.099911989818 gnorm: 0.156661555742 xtb: 6.2.2 (9d81278992624c895f80dd42a50cac0aa55982e2)
C        -0.04206648245988    0.42918759057385    0.00000000000000
C         1.14274961931423   -0.19409209521236    0.00000000000000
O        -1.10068313685435   -0.23509549536149    0.00000000000000
3
 energy: -8.108391061552 gnorm: 0.147990627379 xtb: 6.2.2 (9d81278992624c895f80dd42a50cac0aa55982e2)
C        -0.02914955200120    0.31249117950350    0.00000000000000
C         1.09539278576646   -0.13622858655343    0.00000000000000
O        -1.06624323376526   -0.17626259295007    0.00000000000000
3
 energy: -8.119054938841 gnorm: 0.053504749821 xtb: 6.2.2 (9d81278992624c895f80dd42a50cac0aa55982e2)
C        -0.03470419112647    0.25743987915817    0.00000000000000
C         1.19817465379594   -0.11096927423183    0.00000000000000
O        -1.16347046266947   -0.14647060492633    0.00000000000000
3
 energy: -8.120028446012 gnorm: 0.017958449362 xtb: 6.2.2 (9d81278992624c895f80dd42a50cac0aa55982e2)
C        -0.04601320670686    0.24793324286843    0.00000000000000
C         1.19977723413110   -0.11062057073966    0.00000000000000
O        -1.15376402742424   -0.13731267212877    0.00000000000000
3
 energy: -8.120726539560 gnorm: 0.007877987184 xtb: 6.2.2 (9d81278992624c895f80dd42a50cac0aa55982e2)
C        -0.04488609116279    0.21600409323258    0.00000000000000
C         1.21173532472765   -0.09522597374479    0.00000000000000
O        -1.16684923356486   -0.12077811948779    0.00000000000000
3
 energy: -8.121596212843 gnorm: 0.061816800584 xtb: 6.2.2 (9d81278992624c895f80dd42a50cac0aa55982e2)
C        -0.04979528792724    0.05692977175655    0.00000000000000
C         1.28764283183146   -0.02204294370897    0.00000000000000
O        -1.23784754390422   -0.03488682804758    0.00000000000000
3
 energy: -8.122310351537 gnorm: 0.008974977220 xtb: 6.2.2 (9d81278992624c895f80dd42a50cac0aa55982e2)
C        -0.04916329536642    0.13579144660372    0.00000000000000
C         1.24326161160118   -0.05909049344730    0.00000000000000
O        -1.19409831623475   -0.07670095315642    0.00000000000000
3
 energy: -8.123050195372 gnorm: 0.008010557718 xtb: 6.2.2 (9d81278992624c895f80dd42a50cac0aa55982e2)
C        -0.05189374795256    0.09298717929577    0.00000000000000
C         1.26012859352431   -0.03996820925653    0.00000000000000
O        -1.20823484557176   -0.05301897003924    0.00000000000000
3
 energy: -8.122622246830 gnorm: 0.040346180882 xtb: 6.2.2 (9d81278992624c895f80dd42a50cac0aa55982e2)
C        -0.05652530952368   -0.00098340939140    0.00000000000000
C         1.28975469140118    0.00237557453946    0.00000000000000
O        -1.23322938187750   -0.00139216514807    0.00000000000000
3
 energy: -8.123469837543 gnorm: 0.009176113159 xtb: 6.2.2 (9d81278992624c895f80dd42a50cac0aa55982e2)
C        -0.05329800586111    0.05508026303062    0.00000000000000
C         1.26791798818855   -0.02279166669495    0.00000000000000
O        -1.21461998232744   -0.03228859633567    0.00000000000000
3
 energy: -8.123579762525 gnorm: 0.007821449884 xtb: 6.2.2 (9d81278992624c895f80dd42a50cac0aa55982e2)
C        -0.05300973642435    0.04188385150690    0.00000000000000
C         1.26897329719381   -0.01656034283217    0.00000000000000
O        -1.21596356076946   -0.02532350867473    0.00000000000000
3
 energy: -8.123732465826 gnorm: 0.005736525414 xtb: 6.2.2 (9d81278992624c895f80dd42a50cac0aa55982e2)
C        -0.05194292428070    0.00649633091688    0.00000000000000
C         1.26973752255480    0.00021983974056    0.00000000000000
O        -1.21779459827410   -0.00671617065743    0.00000000000000
3
 energy: -8.123752966789 gnorm: 0.001620691286 xtb: 6.2.2 (9d81278992624c895f80dd42a50cac0aa55982e2)
C        -0.05163100622508    0.00339236682133    0.00000000000000
C         1.26771777598394    0.00173435924334    0.00000000000000
O        -1.21608676975886   -0.00512672606467    0.00000000000000
3
 energy: -8.123754995334 gnorm: 0.000694261984 xtb: 6.2.2 (9d81278992624c895f80dd42a50cac0aa55982e2)
C        -0.05151136820737   -0.00135601168031    0.00000000000000
C         1.26666822235416    0.00395754952293    0.00000000000000
O        -1.21515685414679   -0.00260153784262    0.00000000000000
