$hessian                                                                        
        1.3947011625   0.0036752474  -0.0000053733  -0.4894951648  -0.0017578001
        0.0000012188  -0.9052237384  -0.0011638512   0.0000012952
        0.0036752474   0.0200767724  -0.0000000053  -0.0024648444  -0.0094622464
        0.0000000021  -0.0012103803  -0.0106863356   0.0000000045
       -0.0000053733  -0.0000000053   0.0202275173   0.0000016449   0.0000000069
       -0.0094403324   0.0000037285   0.0000000004  -0.0107479385
       -0.4894951648  -0.0024648444   0.0000016449   0.5770612009   0.0024269048
       -0.0000009694  -0.0875651042   0.0000317555   0.0000000728
       -0.0017578001  -0.0094622464   0.0000000069   0.0024269048   0.0043626327
       -0.0000000023  -0.0006690967   0.0051241764  -0.0000000048
        0.0000012188   0.0000000021  -0.0094403324  -0.0000009694  -0.0000000023
        0.0043470639  -0.0000002494   0.0000000097   0.0050968578
       -0.9052237384  -0.0012103803   0.0000037285  -0.0875651042  -0.0006690967
       -0.0000002494   0.9928056514   0.0011320650  -0.0000013681
       -0.0011638512  -0.0106863356   0.0000000004   0.0000317555   0.0051241764
        0.0000000097   0.0011320650   0.0056094062  -0.0000000113
        0.0000012952   0.0000000045  -0.0107479385   0.0000000728  -0.0000000048
        0.0050968578  -0.0000013681  -0.0000000113   0.0056082449
