[Molden Format]
[Title]
[Atoms] AU
C      1     6 -0.97342382600497E-01 -0.25619807763418E-02  0.34426135835175E-06
C      2     6  0.23936558480437E+01  0.74661508764850E-02 -0.83684877701610E-05
O      3     8 -0.22963134654432E+01 -0.49041701001437E-02  0.80242264127069E-05
[GTO]
           1 0
 s           4   1.0000000000000000     
   51.049363095579913      -0.16312063210127389     
   8.7911227406887544      -0.19911024581000730     
  0.70640422258929825       0.31882047753655751     
  0.26922813413411617       0.12706504184240380     
 p           4   1.0000000000000000     
   5.8263656140800002       0.73716451545209605     
   1.5106896018720002       0.68216371614850257     
  0.53256483288000001       0.35783053929253711     
  0.21202323690600003        5.3983030275847881E-002

           2 0
 s           4   1.0000000000000000     
   51.049363095579913      -0.16312063210127389     
   8.7911227406887544      -0.19911024581000730     
  0.70640422258929825       0.31882047753655751     
  0.26922813413411617       0.12706504184240380     
 p           4   1.0000000000000000     
   5.8263656140800002       0.73716451545209605     
   1.5106896018720002       0.68216371614850257     
  0.53256483288000001       0.35783053929253711     
  0.21202323690600003        5.3983030275847881E-002

           3 0
 s           4   1.0000000000000000     
   69.137961906196551      -0.20478756370077797     
   11.906129132707308      -0.24997023136827334     
  0.95670827744340703       0.40025880240639616     
  0.36462520496073686       0.15952206667693555     
 p           4   1.0000000000000000     
   8.2124193257781641        1.1321556799186829     
   2.1293576997098116        1.0476840782254817     
  0.75066448202360914       0.54956508217158984     
  0.29885246543283073        8.2908486592766617E-002

[MO]
Sym=     1a
Ene=  -0.80011299947212733     
Spin= Alpha
Occup=     2.00000000
           1  0.33030539926787894     
           2 -0.22216543855315246     
           3  -2.1704017757226497E-004
           4   7.7440436744820559E-007
           5   2.2872877417138771E-002
           6  -3.0166206715764764E-002
           7  -8.5637602133863949E-005
           8   1.0525953839197480E-007
           9  0.65341156485471052     
          10  0.23961391971123536     
          11   2.1331721319284495E-004
          12  -8.4868292537468579E-007
Sym=     2a
Ene=  -0.70121376976676497     
Spin= Alpha
Occup=     2.00000000
           1 -0.44210812610039751     
           2 -0.25745280473197324     
           3  -1.1145654088804597E-003
           4   8.9516735354483962E-007
           5 -0.45118606258957811     
           6  0.15542716082040139     
           7   5.7876861536055495E-004
           8  -5.4331545617563229E-007
           9  0.34794405336353929     
          10 -0.28266736046311641     
          11  -8.9705072830683914E-004
          12   9.7476178171929162E-007
Sym=     3a
Ene=  -0.63002745226742130     
Spin= Alpha
Occup=     2.00000000
           1  -6.3478356072617259E-002
           2  0.28508213558027518     
           3   7.7383074283195411E-003
           4  -1.1953584621553729E-006
           5  0.41891910802438986     
           6  -2.5289317900162343E-002
           7   1.3951279449920051E-003
           8   4.2207435283387093E-008
           9  0.53228526348296379     
          10 -0.62541600938251263     
          11   9.4287573396299798E-003
          12   1.8809546893650682E-006
Sym=     4a
Ene=  -0.62506736360024640     
Spin= Alpha
Occup=     2.00000000
           1   9.8793374383842049E-009
           2   6.2555419046862627E-006
           3  -4.1338378478164578E-004
           4  0.49728194276903520     
           5   5.4012063794864481E-006
           6   4.3545219213425028E-007
           7  -9.8705897215398152E-005
           8  0.11872890851513113     
           9   6.2434529044721411E-006
          10  -4.2472945466126194E-006
          11  -6.0911936978935743E-004
          12  0.73271467210541386     
Sym=     5a
Ene=  -0.62506624836735303     
Spin= Alpha
Occup=     2.00000000
           1  -4.1976441949259740E-005
           2  -5.3038360474597906E-003
           3  0.49722026689171223     
           4   4.1345681041279544E-004
           5  -6.2968812494354634E-003
           6  -3.3003415411013818E-005
           7  0.11872077098790422     
           8   9.8708338538546660E-005
           9  -7.2356059250819459E-003
          10   7.8748194802938480E-003
          11  0.73265359008995046     
          12   6.0915081085150436E-004
Sym=     6a
Ene=  -0.47188941816606189     
Spin= Alpha
Occup=     2.00000000
           1 -0.23023668381213336     
           2 -0.22625947927812187     
           3   6.2002631244551139E-004
           4   7.8618983209835667E-007
           5  0.64789429653012554     
           6  0.64880845093537531     
           7   4.0136651678945607E-003
           8  -2.2721860614027131E-006
           9  -3.6498977828170708E-002
          10  0.22568090889377368     
          11  -1.1885662856490013E-003
          12  -7.8461426888765512E-007
Sym=     7a
Ene=  -0.43262491558245358     
Spin= Alpha
Occup=     1.00002604
           1   3.6182905358752244E-007
           2   3.9721186508615368E-006
           3  -1.9843777275087662E-003
           4  0.40615041655692147     
           5   6.2266399950504901E-006
           6   2.6602049085063512E-005
           7  -3.5587452701011722E-003
           8  0.72839403844630002     
           9   8.8313256654881852E-007
          10  -1.9300583928880888E-006
          11   2.6078443820564479E-003
          12 -0.53375474637119691     
Sym=     8a
Ene=  -0.43262481662281249     
Spin= Alpha
Occup=     0.99997396
           1   7.3977579196953067E-005
           2   5.2248445955640436E-004
           3 -0.40614822097433090     
           4  -1.9843936396866505E-003
           5   1.2739510842841451E-003
           6   4.9222475464398494E-003
           7 -0.72837866512443294     
           8  -3.5588452496621036E-003
           9   1.8205502224843509E-004
          10  -1.4497093930031784E-005
          11  0.53375340100075819     
          12   2.6078406796406243E-003
Sym=     9a
Ene=  -0.22229436892715645     
Spin= Alpha
Occup=     0.00000000
           1  -2.0268167910658789E-003
           2  -1.9838008640104838E-003
           3  0.83943219279498693     
           4   5.0183048726358979E-003
           5   5.7945436073425845E-005
           6   1.5084428321988257E-003
           7 -0.71317562919582056     
           8  -4.2634885953148887E-003
           9   1.9758464377037769E-004
          10   1.5113686242990674E-003
          11 -0.49084722058895719     
          12  -2.9343893633321555E-003
Sym=    10a
Ene=  -0.22229313057814828     
Spin= Alpha
Occup=     0.00000000
           1  -1.2121021414893116E-005
           2  -1.4793279320941778E-005
           3   5.0182698939645011E-003
           4 -0.83943824098527253     
           5   3.4707581969086975E-007
           6   1.1507715460274223E-005
           7  -4.2634892987576120E-003
           8  0.71317673071208343     
           9   1.1855301498653832E-006
          10   1.0750487697036212E-005
          11  -2.9343655644243458E-003
          12  0.49084995211942317     
Sym=    11a
Ene=   0.21716100243308442     
Spin= Alpha
Occup=     0.00000000
           1  -1.1561225804262847     
           2  -7.9745368030174207E-002
           3  -3.1107547679038523E-003
           4   2.8604182408799554E-007
           5  0.48723436711922147     
           6 -0.79291594202096727     
           7  -2.2088045113664062E-003
           8   2.7710568141079796E-006
           9  0.37648550146231097     
          10  0.58895056427543546     
          11   1.6925250839546731E-003
          12  -2.0581378075708776E-006
Sym=    12a
Ene=    1.0468044588905079     
Spin= Alpha
Occup=     0.00000000
           1 -0.17044856393689756     
           2   1.4599985641592312     
           3   3.3725907050016447E-003
           4  -5.1017765284589855E-006
           5 -0.65996121312647782     
           6  0.66547987025535493     
           7   3.2953608066982722E-003
           8  -2.3287900237063750E-006
           9  0.81958102640834307     
          10  0.77523870617273105     
          11   3.5915838340700481E-004
          12  -2.7052843510775012E-006
