[Molden Format]
[Title]
[Atoms] AU
C      1     6 -0.54428656145833E-01 -0.94613962873623E-03  0.19164365670966E-06
N      2     7 -0.23066913760452E+01 -0.62698156866931E-02  0.80628357265029E-05
C      3     6  0.23611200321910E+01  0.72159553154294E-02 -0.82544793823814E-05
[GTO]
           1 0
 s           4   1.0000000000000000     
   51.049363095579913      -0.16312063210127389     
   8.7911227406887544      -0.19911024581000730     
  0.70640422258929825       0.31882047753655751     
  0.26922813413411617       0.12706504184240380     
 p           4   1.0000000000000000     
   5.8263656140800002       0.73716451545209605     
   1.5106896018720002       0.68216371614850257     
  0.53256483288000001       0.35783053929253711     
  0.21202323690600003        5.3983030275847881E-002

           2 0
 s           4   1.0000000000000000     
   63.594024466941008      -0.19234388414721629     
   10.951417231523665      -0.23478107924953728     
  0.87999310257376984       0.37593753901700888     
  0.33538715296521110       0.14982889271862770     
 p           4   1.0000000000000000     
   7.2965040481495080       0.97658666315667420     
   1.8918745450712575       0.90372226730345739     
  0.66694432110824120       0.47404958461536373     
  0.26552202674130870        7.1516067715011844E-002

           3 0
 s           4   1.0000000000000000     
   51.049363095579913      -0.16312063210127389     
   8.7911227406887544      -0.19911024581000730     
  0.70640422258929825       0.31882047753655751     
  0.26922813413411617       0.12706504184240380     
 p           4   1.0000000000000000     
   5.8263656140800002       0.73716451545209605     
   1.5106896018720002       0.68216371614850257     
  0.53256483288000001       0.35783053929253711     
  0.21202323690600003        5.3983030275847881E-002

[MO]
Sym=     1a
Ene=  -0.69169819909032670     
Spin= Alpha
Occup=     2.00000000
           1  0.54240046723630164     
           2  -7.8930985381413341E-002
           3  -5.3353596851465748E-005
           4   2.8486595289119832E-007
           5  0.41065401267513624     
           6  0.20844951622418148     
           7   5.3475380486918465E-004
           8  -7.1913421959580833E-007
           9  0.25734306352400138     
          10 -0.15078736245020091     
          11  -4.7618912299654130E-004
          12   5.2682912165719661E-007
Sym=     2a
Ene=  -0.65988997433322938     
Spin= Alpha
Occup=     2.00000000
           1 -0.12472019881806680     
           2 -0.42004389735796654     
           3  -1.2347884602053568E-003
           4   1.4786715677631189E-006
           5  0.41150707786852236     
           6   6.9845901237263100E-002
           7   9.8481634000877996E-005
           8  -2.4245284169155442E-007
           9 -0.49665551349244852     
          10  0.13475534613155132     
          11   4.9314318757487212E-004
          12  -4.6416239634575430E-007
Sym=     3a
Ene=  -0.53951460309048427     
Spin= Alpha
Occup=     2.00000000
           1   4.9328842144399237E-004
           2   1.5482281036166255E-003
           3 -0.56185085896918729     
           4  0.15225297214217440     
           5  -4.6576270565960095E-004
           6   1.6647911060164949E-003
           7 -0.54015953442598852     
           8  0.14637506907557085     
           9  -3.0853545464594185E-004
          10   8.0593637836832066E-004
          11 -0.30221577893522072     
          12   8.1895826000145056E-002
Sym=     4a
Ene=  -0.53951459548260172     
Spin= Alpha
Occup=     2.00000000
           1  -1.3364629676894382E-004
           2  -4.1744943706215287E-004
           3  0.15225234873798735     
           4  0.56185319241465614     
           5   1.2609492483085791E-004
           6  -4.4900168748585853E-004
           7  0.14637435920887357     
           8  0.54016220850580443     
           9   8.3555136574052966E-005
          10  -2.1728111326846649E-004
          11   8.1895505901861967E-002
          12  0.30221695358001543     
Sym=     5a
Ene=  -0.51106626235944486     
Spin= Alpha
Occup=     2.00000000
           1  0.23811969103857550     
           2  -7.2569729936753147E-002
           3   2.1828083812051269E-004
           4   1.4930264012524538E-007
           5 -0.61517606068587083     
           6  0.52486036476787545     
           7   1.7880797608573256E-003
           8  -1.8956456475253351E-006
           9 -0.46619757328968425     
          10 -0.27102026593042805     
          11  -5.5040300839022057E-004
          12   8.7927920131174215E-007
Sym=     6a
Ene=  -0.45237586607396973     
Spin= Alpha
Occup=     1.00000000
           1   7.1341625482960552E-002
           2  0.25446555560514095     
           3   5.9957646024878385E-004
           4  -8.5450596191465916E-007
           5  0.25598734245716276     
           6 -0.45962623734926256     
           7  -6.4057963000319128E-004
           8   1.5827538686472584E-006
           9 -0.49843356035134556     
          10 -0.62753735303624336     
          11  -2.5487895628613765E-003
          12   2.2536213978116849E-006
Sym=     7a
Ene=  -0.41268255865989906     
Spin= Alpha
Occup=     1.00000000
           1   5.3789794253778391E-008
           2   9.1769345902564848E-007
           3  -2.3354132659540012E-004
           4  0.14856781469270103     
           5  -1.5143036008308521E-007
           6  -4.0845344715296266E-006
           7   1.0255483580783060E-003
           8 -0.65239652925088421     
           9   3.5895268197347544E-007
          10   7.4033445570581764E-006
          11  -1.1746767028062879E-003
          12  0.74727355733658807     
Sym=     8a
Ene=  -0.41268253209615013     
Spin= Alpha
Occup=     1.00000000
           1   2.9692202117108047E-005
           2   2.6391842185405058E-004
           3 -0.14856761820707706     
           4  -2.3354668945993622E-004
           5  -7.2216178945229824E-005
           6  -1.1786463180913235E-003
           7  0.65239542170872844     
           8   1.0255454919253766E-003
           9   2.1487450670622449E-004
          10   3.0271778868215101E-003
          11 -0.74726745990649057     
          12  -1.1747026186807044E-003
Sym=     9a
Ene=  -0.18648263737260762     
Spin= Alpha
Occup=     0.00000000
           1   6.8935979068461626E-004
           2   2.4900792522106778E-003
           3 -0.87533103553762159     
           4  -5.0006176262266139E-002
           5  -5.6855372984049323E-005
           6  -1.7303566487762514E-003
           7  0.57098798682702823     
           8   3.2619580640526037E-002
           9  -3.3929150757134308E-005
          10  -1.7310318691815170E-003
          11  0.63616168762339109     
          12   3.6342804941228643E-002
Sym=    10a
Ene=  -0.18648250303978045     
Spin= Alpha
Occup=     0.00000000
           1  -3.9381557705253650E-005
           2  -1.4532592754860460E-004
           3   5.0005952692686310E-002
           4 -0.87533497950495576     
           5   3.2538316420149254E-006
           6   1.0084598087146423E-004
           7  -3.2619426708305845E-002
           8  0.57099062622920072     
           9   1.9409624185192968E-006
          10   1.0112187229442464E-004
          11  -3.6342676259437975E-002
          12  0.63616401456742078     
Sym=    11a
Ene=   0.30278588069837453     
Spin= Alpha
Occup=     0.00000000
           1   1.2012245163898179     
           2   1.6268185960245336E-002
           3   1.0370355536012067E-003
           4  -5.5219153658295834E-008
           5 -0.45332952882602467     
           6 -0.67965534390369797     
           7  -1.9493203779383632E-003
           8   2.3766471360654978E-006
           9 -0.48107261287793712     
          10  0.73794167000225108     
          11   2.1537801058343227E-003
          12  -2.5804582814915386E-006
Sym=    12a
Ene=    1.1459135253090931     
Spin= Alpha
Occup=     0.00000000
           1  -3.3818509238615270E-002
           2   1.4951361959908644     
           3   4.2513830979871306E-003
           4  -5.2290593588227534E-006
           5  0.81077051116223264     
           6  0.75652506736412217     
           7   1.6067597293157416E-003
           8  -2.6429639709718300E-006
           9 -0.74725032320766982     
          10  0.73145258179189743     
          11   2.6702058757437268E-003
          12  -2.5572285444622628E-006
