      -----------------------------------------------------------      
     |                   =====================                   |     
     |                           x T B                           |     
     |                   =====================                   |     
     |                         S. Grimme                         |     
     |          Mulliken Center for Theoretical Chemistry        |     
     |                    University of Bonn                     |     
      -----------------------------------------------------------      

   * xtb version 6.2.2 (9d81278992624c895f80dd42a50cac0aa55982e2) compiled by '@Darwin' on 04/03/2020

   xtb is free software: you can redistribute it and/or modify it under
   the terms of the GNU Lesser General Public License as published by
   the Free Software Foundation, either version 3 of the License, or
   (at your option) any later version.
   
   xtb is distributed in the hope that it will be useful,
   but WITHOUT ANY WARRANTY; without even the implied warranty of
   MERCHANTABILITY or FITNESS FOR A PARTICULAR PURPOSE.  See the
   GNU Lesser General Public License for more details.
   
   Cite this work as:
   * S. Grimme, C. Bannwarth, P. Shushkov, J. Chem. Theory Comput., 2017,
     13, 1989-2009. DOI: 10.1021/acs.jctc.7b00118
   * C. Bannwarth, S. Ehlert and S. Grimme., J. Chem. Theory Comput., 2019,
     15, 1652-1671. DOI: 10.1021/acs.jctc.8b01176
   * P. Pracht, E. Caldeweyher, S. Ehlert, S. Grimme, ChemRxiv, 2019, preprint.
     DOI: 10.26434/chemrxiv.8326202.v1
   
   for DFT-D4:
   * E. Caldeweyher, C. Bannwarth and S. Grimme, J. Chem. Phys., 2017,
     147, 034112. DOI: 10.1063/1.4993215
   * E. Caldeweyher, S. Ehlert, A. Hansen, H. Neugebauer, S. Spicher,
     C. Bannwarth and S. Grimme, J. Chem. Phys., 2019, 150, 154122.
     DOI: 10.1063/1.5090222
   
   for sTDA-xTB:
   * S. Grimme and C. Bannwarth, J. Chem. Phys., 2016, 145, 054103.
     DOI: 10.1063/1.4959605
   
   in the mass-spec context:
   * V. Asgeirsson, C. Bauer and S. Grimme, Chem. Sci., 2017, 8, 4879.
     DOI: 10.1039/c7sc00601b
   
   for metadynamics refer to:
   * S. Grimme, J. Chem. Theory Comput., 2019, 155, 2847-2862
     DOI: 10.1021/acs.jctc.9b00143
   
   with help from (in alphabetical order)
   C. Bannwarth, F. Bohle, G. Brandenburg, E. Caldeweyher, M. Checinski,
   S. Dohm, S. Ehlert, S. Ehrlich, F. März, H. Neugebauer, J. Pisarek,
   P. Pracht, P. Shushkov, and S. Spicher.
   
 * started run on 2020/05/12 at 11:43:53.744     

           -------------------------------------------------
          |                Calculation Setup                |
           -------------------------------------------------

          program call               : xtb --input C2N1_0_S_3.input C2N1_0_S_3.xyz --ohess --molden --namespace C2N1_0_S_3 output.out
          calculation namespace      : C2N1_0_S_3
          coordinate file            : C2N1_0_S_3.xyz
          number of atoms            :                     3
          number of electrons        :                    13
          charge                     :                     0
          spin                       :                   1.5
          first test random number   :      0.77600602778859

   ID    Z sym.   atoms
    1    6 C      1, 3
    2    7 N      2

           -------------------------------------------------
          |                 G F N 2 - x T B                 |
           -------------------------------------------------

        Reference                      10.1021/acs.jctc.8b01176
      * Hamiltonian:
        H0-scaling (s, p, d)           1.850000    2.230000    2.230000
        zeta-weighting                 0.500000
      * Dispersion:
        s8                             2.700000
        a1                             0.520000
        a2                             5.000000
        s9                             5.000000
      * Repulsion:
        kExp                           1.500000    1.000000
        rExp                           1.000000
      * Coulomb:
        alpha                          2.000000
        third order                    shell-resolved
        anisotropic                    true
        a3                             3.000000
        a5                             4.000000
        cn-shift                       1.200000
        cn-exp                         4.000000
        max-rad                        5.000000


          ...................................................
          :                      SETUP                      :
          :.................................................:
          :  # basis functions                  12          :
          :  # atomic orbitals                  12          :
          :  # shells                            6          :
          :  # electrons                        13          :
          :  max. iterations                   250          :
          :  Hamiltonian                  GFN2-xTB          :
          :  restarted?                      false          :
          :  GBSA solvation                  false          :
          :  PC potential                    false          :
          :  electronic temp.          300.0000000     K    :
          :  accuracy                    1.0000000          :
          :  -> integral cutoff          0.2500000E+02      :
          :  -> integral neglect         0.1000000E-07      :
          :  -> SCF convergence          0.1000000E-05 Eh   :
          :  -> wf. convergence          0.1000000E-03 e    :
          :  Broyden damping             0.4000000          :
          ...................................................

 iter      E             dE          RMSdq      gap      omega  full diag
   1     -6.5455438 -0.654554E+01  0.105E+01    0.43       0.0  T
   2     -5.7867384  0.758805E+00  0.154E+01    1.54       1.0  T
   3     -6.6899614 -0.903223E+00  0.633E+00    1.01       1.0  T
   4     -6.3726068  0.317355E+00  0.858E+00    1.23       1.0  T
   5     -6.4384531 -0.658463E-01  0.715E+00    0.87       1.0  T
   6     -6.7506634 -0.312210E+00  0.210E+00    0.91       1.0  T
   7     -6.7007274  0.499360E-01  0.341E+00    0.73       1.0  T
   8     -6.7001711  0.556279E-03  0.333E+00    0.72       1.0  T
   9     -6.7526669 -0.524958E-01  0.116E+00    0.83       1.0  T
  10     -6.7504395  0.222735E-02  0.120E+00    0.84       1.0  T
  11     -6.7547667 -0.432721E-02  0.108E+00    0.81       1.0  T
  12     -6.7558085 -0.104177E-02  0.353E-01    0.82       1.0  T
  13     -6.7559961 -0.187574E-03  0.872E-02    0.81       1.0  T
  14     -6.7559703  0.258011E-04  0.213E-01    0.81       1.0  T
  15     -6.7560316 -0.612982E-04  0.280E-02    0.81       2.1  T
  16     -6.7560301  0.145750E-05  0.399E-02    0.81       1.4  T
  17     -6.7560333 -0.316284E-05  0.101E-02    0.81       5.7  T
  18     -6.7560335 -0.228389E-06  0.322E-03    0.81      17.9  T
  19     -6.7560335 -0.255959E-07  0.396E-04    0.81     145.8  T
  20     -6.7560335 -0.278662E-09  0.202E-04    0.81     286.2  T

   *** convergence criteria satisfied after 20 iterations ***

         #    Occupation            Energy/Eh            Energy/eV
      -------------------------------------------------------------
         1        2.0000           -0.6814270             -18.5426
         2        2.0000           -0.6365956             -17.3226
         3        2.0000           -0.5501891             -14.9714
         4        2.0000           -0.5116063             -13.9215
         5        1.7966           -0.4982243             -13.5574
         6        1.2034           -0.4956299             -13.4868
         7        1.0000           -0.4265626             -11.6074
         8        1.0000           -0.4077073             -11.0943 (HOMO)
         9        0.0000           -0.3779702             -10.2851 (LUMO)
        10                         -0.3131805              -8.5221
        11                          0.0451063               1.2274
        12                          0.0717153               1.9515
      -------------------------------------------------------------
                  HL-Gap            0.0297371 Eh            0.8092 eV
             Fermi-level           -0.4448829 Eh          -12.1059 eV

 SCC (total)                   0 d,  0 h,  0 min,  0.002 sec
 SCC setup                      ...        0 min,  0.000 sec (  3.060%)
 Dispersion                     ...        0 min,  0.000 sec (  0.420%)
 integral evaluation            ...        0 min,  0.001 sec ( 24.227%)
 zeroth order Hamiltonian       ...        0 min,  0.000 sec (  0.873%)
 iterations                     ...        0 min,  0.001 sec ( 46.940%)
 molecular gradient             ...        0 min,  0.000 sec ( 20.437%)
 printout                       ...        0 min,  0.000 sec (  3.568%)

         :::::::::::::::::::::::::::::::::::::::::::::::::::::
         ::                     SUMMARY                     ::
         :::::::::::::::::::::::::::::::::::::::::::::::::::::
         :: total energy              -6.729861655389 Eh    ::
         :: gradient norm              0.309566188974 Eh/a0 ::
         :: HOMO-LUMO gap              0.809188365033 eV    ::
         ::.................................................::
         :: SCC energy                -6.756033534940 Eh    ::
         :: -> isotropic ES           -0.005215159471 Eh    ::
         :: -> anisotropic ES          0.000201397847 Eh    ::
         :: -> anisotropic XC          0.005971066798 Eh    ::
         :: -> dispersion             -0.000922056264 Eh    ::
         :: repulsion energy           0.026171878411 Eh    ::
         :: add. restraining           0.000000000000 Eh    ::
         :::::::::::::::::::::::::::::::::::::::::::::::::::::

      ----------------------------------------------------------- 
     |                   =====================                   |
     |                        A N C O P T                        |
     |                   =====================                   |
     |               Approximate Normal Coordinate               |
     |                Rational Function Optimizer                |
      ----------------------------------------------------------- 

          ...................................................
          :                      SETUP                      :
          :.................................................:
          :   optimization level            normal          :
          :   max. optcycles                   200          :
          :   ANC micro-cycles                  20          :
          :   degrees of freedom                 3          :
          :.................................................:
          :   RF solver                   davidson          :
          :   write xtbopt.log                true          :
          :   linear?                        false          :
          :   energy convergence         0.5000000E-05 Eh   :
          :   grad. convergence          0.1000000E-02 Eh/α :
          :   maximium RF displ.         1.0000000          :
          :   Hlow (freq-cutoff)         0.1000000E-01      :
          :   Hmax (freq-cutoff)         5.0000000          :
          :   S6 in model hess.         20.0000000          :
          ...................................................

generating ANC from model Hessian ...
Using Lindh-Hessian (1995)
 Shifting diagonal of input Hessian by    0.0000000000000000     
 Lowest  eigenvalues of input Hessian
   -0.000000   -0.000000   -0.000000    0.000000    0.000000    0.000000
    0.088403    0.755979    1.067744
 Highest eigenvalues
    0.000000    0.000000    0.000000    0.088403    0.755979    1.067744


........................................................................
.............................. CYCLE    1 ..............................
........................................................................
   1     -6.7560335 -0.675603E+01  0.283E-05    0.81       0.0  T
   2     -6.7560335  0.514255E-10  0.104E-04    0.81     554.0  T
   3     -6.7560335 -0.460547E-10  0.384E-05    0.81    1503.8  T
     SCC iter.                  ...        0 min,  0.000 sec
     gradient                   ...        0 min,  0.000 sec
 * total energy  :    -6.7298617 Eh     change        0.4232970E-10 Eh
   gradient norm :     0.3095662 Eh/α   predicted     0.0000000E+00 (-100.00%)
   displ. norm   :     0.4032927 α      lambda       -0.1142112E+00
   maximum displ.:     0.3349613 α      in ANC's #2, #1, #3, ...

........................................................................
.............................. CYCLE    2 ..............................
........................................................................
   1     -6.8951347 -0.689513E+01  0.309E+00    2.59       0.0  T
   2     -6.8313547  0.637801E-01  0.373E+00    2.54       1.0  T
   3     -6.8624669 -0.311122E-01  0.286E+00    2.59       1.0  T
   4     -6.8981250 -0.356582E-01  0.102E+00    2.66       1.0  T
   5     -6.9017546 -0.362962E-02  0.389E-01    2.58       1.0  T
   6     -6.9019619 -0.207276E-03  0.297E-01    2.59       1.0  T
   7     -6.9020065 -0.445616E-04  0.553E-02    2.59       1.0  T
   8     -6.9020077 -0.123055E-05  0.355E-02    2.58       1.6  T
   9     -6.9020142 -0.646006E-05  0.427E-03    2.58      13.5  T
  10     -6.9020142 -0.213575E-07  0.121E-03    2.58      47.6  T
  11     -6.9020142 -0.510874E-08  0.210E-04    2.58     275.1  T
  12     -6.9020142  0.445688E-11  0.662E-05    2.58     871.7  T
     SCC iter.                  ...        0 min,  0.000 sec
     gradient                   ...        0 min,  0.000 sec
 * total energy  :    -6.8301191 Eh     change       -0.1002575E+00 Eh
   gradient norm :     0.2107518 Eh/α   predicted    -0.6639350E-01 ( -33.78%)
   displ. norm   :     0.5314126 α      lambda       -0.1111017E+00
   maximum displ.:     0.4923293 α      in ANC's #2, #3, #1, ...

........................................................................
.............................. CYCLE    3 ..............................
........................................................................
   1     -7.0890841 -0.708908E+01  0.314E+00    6.68       0.0  T
   2     -7.0707235  0.183606E-01  0.284E+00    6.43       1.0  T
   3     -7.0770596 -0.633605E-02  0.216E+00    6.63       1.0  T
   4     -7.0955291 -0.184695E-01  0.408E-01    6.60       1.0  T
   5     -7.0960715 -0.542419E-03  0.861E-02    6.57       1.0  T
   6     -7.0960715  0.134203E-07  0.504E-02    6.58       1.1  T
   7     -7.0960784 -0.689851E-05  0.623E-03    6.58       9.3  T
   8     -7.0960784 -0.483156E-08  0.236E-03    6.58      24.5  T
   9     -7.0960784 -0.172134E-07  0.459E-04    6.58     125.8  T
  10     -7.0960784 -0.101698E-09  0.788E-05    6.58     732.9  T
     SCC iter.                  ...        0 min,  0.001 sec
     gradient                   ...        0 min,  0.000 sec
 * total energy  :    -6.8408525 Eh     change       -0.1073341E-01 Eh
   gradient norm :     0.3361448 Eh/α   predicted    -0.7123835E-01 ( 563.71%)
   displ. norm   :     0.5311967 α      lambda       -0.1210186E+00
   maximum displ.:     0.5306494 α      in ANC's #1, #2, #3, ...

........................................................................
.............................. CYCLE    4 ..............................
........................................................................
   1     -6.9841879 -0.698419E+01  0.251E+00    5.30       0.0  T
   2     -6.9645944  0.195935E-01  0.236E+00    5.59       1.0  T
   3     -6.9501144  0.144800E-01  0.256E+00    5.41       1.0  T
   4     -6.9875007 -0.373863E-01  0.847E-01    5.35       1.0  T
   5     -6.9887856 -0.128490E-02  0.251E-01    5.44       1.0  T
   6     -6.9881920  0.593597E-03  0.361E-01    5.45       1.0  T
   7     -6.9889181 -0.726114E-03  0.251E-02    5.44       2.3  T
   8     -6.9889205 -0.238761E-05  0.476E-03    5.44      12.1  T
   9     -6.9889205 -0.338665E-07  0.253E-03    5.44      22.8  T
  10     -6.9889205 -0.286374E-07  0.118E-04    5.44     487.5  T
  11     -6.9889205  0.478195E-11  0.103E-04    5.44     562.5  T
     SCC iter.                  ...        0 min,  0.000 sec
     gradient                   ...        0 min,  0.000 sec
 * total energy  :    -6.8819180 Eh     change       -0.4106542E-01 Eh
   gradient norm :     0.0998870 Eh/α   predicted    -0.7758319E-01 (  88.93%)
   displ. norm   :     0.1030972 α      lambda       -0.7597152E-02
   maximum displ.:     0.1013790 α      in ANC's #1, #3, #2, ...

........................................................................
.............................. CYCLE    5 ..............................
........................................................................
   1     -7.0178382 -0.701784E+01  0.549E-01    5.84       0.0  T
   2     -7.0171521  0.686148E-03  0.485E-01    5.78       1.0  T
   3     -7.0162273  0.924755E-03  0.546E-01    5.82       1.0  T
   4     -7.0179364 -0.170907E-02  0.185E-01    5.82       1.0  T
   5     -7.0180408 -0.104403E-03  0.247E-02    5.81       2.3  T
   6     -7.0180403  0.453642E-06  0.103E-02    5.81       5.6  T
   7     -7.0180408 -0.477664E-06  0.131E-03    5.81      44.2  T
   8     -7.0180408 -0.762224E-09  0.306E-04    5.81     188.6  T
   9     -7.0180408 -0.297106E-09  0.835E-05    5.81     691.5  T
     SCC iter.                  ...        0 min,  0.001 sec
     gradient                   ...        0 min,  0.001 sec
 * total energy  :    -6.8864488 Eh     change       -0.4530804E-02 Eh
   gradient norm :     0.0328286 Eh/α   predicted    -0.3838952E-02 ( -15.27%)
   displ. norm   :     0.1194069 α      lambda       -0.2830628E-02
   maximum displ.:     0.0948110 α      in ANC's #2, #1, #3, ...

........................................................................
.............................. CYCLE    6 ..............................
........................................................................
   1     -7.0295419 -0.702954E+01  0.577E-01    6.11       0.0  T
   2     -7.0292429  0.299045E-03  0.413E-01    6.08       1.0  T
   3     -7.0260118  0.323109E-02  0.755E-01    6.12       1.0  T
   4     -7.0296032 -0.359139E-02  0.698E-02    6.11       1.0  T
   5     -7.0296140 -0.108186E-04  0.221E-02    6.10       2.6  T
   6     -7.0296144 -0.420753E-06  0.605E-03    6.10       9.5  T
   7     -7.0296146 -0.171842E-06  0.842E-04    6.10      68.6  T
   8     -7.0296146 -0.207984E-09  0.153E-04    6.10     376.9  T
     SCC iter.                  ...        0 min,  0.001 sec
     gradient                   ...        0 min,  0.000 sec
 * total energy  :    -6.8881191 Eh     change       -0.1670366E-02 Eh
   gradient norm :     0.0143055 Eh/α   predicted    -0.1435494E-02 ( -14.06%)
   displ. norm   :     0.0678822 α      lambda       -0.5788920E-03
   maximum displ.:     0.0526060 α      in ANC's #2, #1, #3, ...

........................................................................
.............................. CYCLE    7 ..............................
........................................................................
   1     -7.0289919 -0.702899E+01  0.326E-01    6.13       0.0  T
   2     -7.0289623  0.295729E-04  0.206E-01    6.14       1.0  T
   3     -7.0279754  0.986921E-03  0.396E-01    6.12       1.0  T
   4     -7.0290016 -0.102620E-02  0.436E-02    6.13       1.3  T
   5     -7.0290060 -0.436955E-05  0.137E-02    6.14       4.2  T
   6     -7.0290060 -0.133331E-07  0.324E-03    6.14      17.8  T
   7     -7.0290060 -0.474989E-07  0.893E-04    6.14      64.7  T
   8     -7.0290060 -0.453580E-09  0.175E-04    6.14     330.2  T
     SCC iter.                  ...        0 min,  0.001 sec
     gradient                   ...        0 min,  0.000 sec
 * total energy  :    -6.8883960 Eh     change       -0.2768396E-03 Eh
   gradient norm :     0.0061227 Eh/α   predicted    -0.2907811E-03 (   5.04%)
   displ. norm   :     0.0059432 α      lambda       -0.2588901E-04
   maximum displ.:     0.0043659 α      in ANC's #2, #3, #1, ...

........................................................................
.............................. CYCLE    8 ..............................
........................................................................
   1     -7.0301697 -0.703017E+01  0.410E-02    6.15       0.0  T
   2     -7.0301650  0.465741E-05  0.390E-02    6.15       1.5  T
   3     -7.0301631  0.193941E-05  0.355E-02    6.15       1.6  T
   4     -7.0301704 -0.727410E-05  0.123E-02    6.15       4.7  T
   5     -7.0301708 -0.411276E-06  0.234E-03    6.15      24.7  T
   6     -7.0301708 -0.658520E-08  0.216E-04    6.15     267.7  T
   7     -7.0301708 -0.310862E-11  0.101E-04    6.15     568.8  T
     SCC iter.                  ...        0 min,  0.000 sec
     gradient                   ...        0 min,  0.000 sec
 * total energy  :    -6.8884107 Eh     change       -0.1474529E-04 Eh
   gradient norm :     0.0007399 Eh/α   predicted    -0.1294503E-04 ( -12.21%)
   displ. norm   :     0.0030391 α      lambda       -0.7159100E-06
   maximum displ.:     0.0024659 α      in ANC's #2, #3, #1, ...

........................................................................
.............................. CYCLE    9 ..............................
........................................................................
   1     -7.0304208 -0.703042E+01  0.152E-02    6.16       0.0  T
   2     -7.0304207  0.187468E-06  0.108E-02    6.15       5.4  T
   3     -7.0304186  0.207003E-05  0.190E-02    6.16       3.0  T
   4     -7.0304209 -0.229735E-05  0.262E-03    6.16      22.1  T
   5     -7.0304209 -0.163303E-07  0.622E-04    6.16      92.9  T
   6     -7.0304209 -0.799512E-10  0.566E-05    6.16    1020.9  T
     SCC iter.                  ...        0 min,  0.000 sec
     gradient                   ...        0 min,  0.001 sec
 * total energy  :    -6.8884110 Eh     change       -0.2728468E-06 Eh
   gradient norm :     0.0003784 Eh/α   predicted    -0.3578585E-06 (  31.16%)
   displ. norm   :     0.0010156 α      lambda       -0.1172479E-06
   maximum displ.:     0.0007766 α      in ANC's #2, #1, #3, ...

   *** GEOMETRY OPTIMIZATION CONVERGED AFTER 9 ITERATIONS ***

------------------------------------------------------------------------
 total energy gain   :        -0.1585493 Eh      -99.4912 kcal/mol
 total RMSD          :         0.7623059 a0        0.4034 Å
 total power (kW/mol):       -46.2523578 (step)********** (real)
------------------------------------------------------------------------

 ANCopt (total)                0 d,  0 h,  0 min,  0.014 sec
 optimizer setup                ...        0 min,  0.000 sec (  0.371%)
 model hessian                  ...        0 min,  0.000 sec (  0.224%)
 ANC generation                 ...        0 min,  0.000 sec (  0.217%)
 coordinate transformation      ...        0 min,  0.000 sec (  0.105%)
 single point calculation       ...        0 min,  0.013 sec ( 93.713%)
 optimization log               ...        0 min,  0.000 sec (  1.477%)
 hessian update                 ...        0 min,  0.000 sec (  0.249%)
 rational function              ...        0 min,  0.000 sec (  1.253%)

================
 final structure:
================
3
 xtb: 6.2.2 (9d81278992624c895f80dd42a50cac0aa55982e2)
C        -0.02880240450299   -0.00050082638536   -0.00000000000000
N        -1.22064860465974   -0.00332423518699    0.00000000000000
C         1.24945100916272    0.00382506157235    0.00000000000000

 Bond Distances (Angstroems)
 ---------------------------
C1-N2=1.1918         C1-C3=1.2783         N2-C1=1.1918         C3-C1=1.2783         
 C  C  Rav=1.2783 sigma=0.0000  Rmin=1.2783  Rmax=1.2783     1
 N  C  Rav=1.1918 sigma=0.0000  Rmin=1.1918  Rmax=1.1918     1

 selected bond angles (degree)
 --------------------
C3-C1-N2=179.94                

 selected dihedral angles (degree)
 ---------------------------------

           -------------------------------------------------
          |                Final Singlepoint                |
           -------------------------------------------------

          ...................................................
          :                      SETUP                      :
          :.................................................:
          :  # basis functions                  12          :
          :  # atomic orbitals                  12          :
          :  # shells                            6          :
          :  # electrons                        13          :
          :  max. iterations                   250          :
          :  Hamiltonian                  GFN2-xTB          :
          :  restarted?                      false          :
          :  GBSA solvation                  false          :
          :  PC potential                    false          :
          :  electronic temp.          300.0000000     K    :
          :  accuracy                    1.0000000          :
          :  -> integral cutoff          0.2500000E+02      :
          :  -> integral neglect         0.1000000E-07      :
          :  -> SCF convergence          0.1000000E-05 Eh   :
          :  -> wf. convergence          0.1000000E-03 e    :
          :  Broyden damping             0.4000000          :
          ...................................................

 iter      E             dE          RMSdq      gap      omega  full diag
   1     -7.0304209 -0.703042E+01  0.170E-05    6.16       0.0  T
   2     -7.0304209  0.405542E-11  0.282E-05    6.16    2050.5  T
   3     -7.0304209 -0.440981E-11  0.900E-06    6.16    6418.4  T

   *** convergence criteria satisfied after 3 iterations ***

         #    Occupation            Energy/Eh            Energy/eV
      -------------------------------------------------------------
         1        2.0000           -0.6916982             -18.8221
         2        2.0000           -0.6598899             -17.9565
         3        2.0000           -0.5395146             -14.6809
         4        2.0000           -0.5395145             -14.6809
         5        2.0000           -0.5110662             -13.9068
         6        1.0000           -0.4523759             -12.3098
         7        1.0000           -0.4126826             -11.2297
         8        1.0000           -0.4126825             -11.2297 (HOMO)
         9                         -0.1864826              -5.0745 (LUMO)
        10                         -0.1864825              -5.0744
        11                          0.3027859               8.2392
        12                          1.1459136              31.1819
      -------------------------------------------------------------
                  HL-Gap            0.2261999 Eh            6.1552 eV
             Fermi-level           -0.3906518 Eh          -10.6302 eV

 SCC (total)                   0 d,  0 h,  0 min,  0.002 sec
 SCC setup                      ...        0 min,  0.000 sec (  7.039%)
 Dispersion                     ...        0 min,  0.000 sec (  0.308%)
 integral evaluation            ...        0 min,  0.001 sec ( 42.499%)
 zeroth order Hamiltonian       ...        0 min,  0.000 sec (  0.323%)
 iterations                     ...        0 min,  0.000 sec (  8.418%)
 molecular gradient             ...        0 min,  0.001 sec ( 34.551%)
 printout                       ...        0 min,  0.000 sec (  6.585%)

         :::::::::::::::::::::::::::::::::::::::::::::::::::::
         ::                     SUMMARY                     ::
         :::::::::::::::::::::::::::::::::::::::::::::::::::::
         :: total energy              -6.888410989811 Eh    ::
         :: gradient norm              0.000398950903 Eh/a0 ::
         :: HOMO-LUMO gap              6.155213530634 eV    ::
         ::.................................................::
         :: SCC energy                -7.030420895446 Eh    ::
         :: -> isotropic ES            0.000350529155 Eh    ::
         :: -> anisotropic ES          0.001001804230 Eh    ::
         :: -> anisotropic XC          0.010732880454 Eh    ::
         :: -> dispersion             -0.000921970716 Eh    ::
         :: repulsion energy           0.142009908990 Eh    ::
         :: add. restraining           0.000000000000 Eh    ::
         :::::::::::::::::::::::::::::::::::::::::::::::::::::

           ------------------------------------------------- 
          |                Numerical Hessian                |
           ------------------------------------------------- 
step length          :   0.00500
SCC accuracy         :   0.30000
Hessian scale factor :   1.00000
frozen atoms in %    :   0.00000    0
RMS gradient         :   0.00040
estimated CPU  time      0.00 min
estimated wall time      0.00 min

writing file <hessian>.

 vibrational frequencies (cm-1)
eigval :        0.00     0.00     0.00     0.00     0.00   433.05
eigval :      433.07  1359.90  1936.96
           -------------------------------------------------
          |                Property Printout                |
           -------------------------------------------------

    * Orbital Energies and Occupations

         #    Occupation            Energy/Eh            Energy/eV
      -------------------------------------------------------------
         1        2.0000           -0.6916982             -18.8221
         2        2.0000           -0.6598900             -17.9565
         3        2.0000           -0.5395146             -14.6809
         4        2.0000           -0.5395146             -14.6809
         5        2.0000           -0.5110663             -13.9068
         6        1.0000           -0.4523759             -12.3098
         7        1.0000           -0.4126826             -11.2297
         8        1.0000           -0.4126825             -11.2297 (HOMO)
         9                         -0.1864826              -5.0745 (LUMO)
        10                         -0.1864825              -5.0744
        11                          0.3027859               8.2392
        12                          1.1459135              31.1819
      -------------------------------------------------------------
                  HL-Gap            0.2261999 Eh            6.1552 eV
             Fermi-level           -0.3906518 Eh          -10.6302 eV

     #   Z        covCN         q      C6AA      α(0)
     1   6 C      1.891     0.151    27.446     8.461
     2   7 N      0.912    -0.108    23.366     6.990
     3   6 C      0.983    -0.043    37.250    10.252

 Mol. C6AA /au·bohr⁶  :        260.810482
 Mol. C8AA /au·bohr⁸  :       6984.242324
 Mol. α(0) /au        :         25.703788


Wiberg/Mayer (AO) data.
largest (>0.10) Wiberg bond orders for each atom
          total WBO             WBO to atom ...
     1  C   3.823        N    2 2.097    C    3 1.726
     2  N   2.218        C    1 2.097    C    3 0.121
     3  C   1.847        C    1 1.726    N    2 0.121

MOs/occ written to file <molden.input>


molecular dipole:
                 x           y           z       tot (Debye)
 q only:        0.140       0.000      -0.000
   full:        0.340       0.001      -0.000       0.865
molecular quadrupole (traceless):
                xx          xy          yy          xz          yz          zz
 q only:       -0.816      -0.003       0.408       0.000       0.000       0.408
  q+dip:        0.254       0.002      -0.127      -0.000      -0.000      -0.127
   full:       -1.872      -0.007       0.936       0.000       0.000       0.936

           -------------------------------------------------
          |                Geometry Summary                 |
           -------------------------------------------------

      molecular mass/u    :       38.0281750
   center of mass at/Å    :       -0.0640676      -0.0001741       0.0000002
  moments of inertia/u·Å² :        0.3220345E-05   0.3947424E+02   0.3947425E+02
rotational constants/cm⁻¹ :        0.5234729E+07   0.4270540E+00   0.4270539E+00

 * 1 selected distances

     #   Z        #   Z                                     value/Å
     1   6 C      2   7 N                                 1.1918495 (max)

 * 1 distinct bonds (by element types)

   Z      Z             #   av. dist./Å        max./Å        min./Å
   6 C    7 N           1     1.1918495     1.1918495     1.1918495

           -------------------------------------------------
          |               Frequency Printout                |
           -------------------------------------------------
 vibrational frequencies (cm-1)
eigval :        0.00     0.00     0.00     0.00     0.00   433.05
eigval :      433.07  1359.90  1936.96
 reduced masses (amu)
   1: 12.95   2: 12.94   3: 12.75   4: 12.75   5: 12.76   6: 12.32   7: 12.32   8: 12.75
   9: 12.53
 IR intensities (amu)
   1:  0.11   2:  0.11   3:  0.03   4:  0.01   5:  0.01   6:  0.20   7:  0.20   8:  0.01
Molecule has the following symmetry elements: (Cinf) (sigma) 
It seems to be the Cinfv point group
   9:  0.60
 Raman intensities (amu)
   1:  0.00   2:  0.00   3:  0.00   4:  0.00   5:  0.00   6:  0.00   7:  0.00   8:  0.00
   9:  0.00
 output can be read by thermo (or use thermo option).
 writing <g98.out> molden fake output.
 recommended (thermochemical) frequency scaling factor: 1.0
           -------------------------------------------------
          |             Thermodynamic Functions             |
           -------------------------------------------------

cin symmetry found (for desy threshold:  0.10E+00) used in thermo

          ...................................................
          :                      SETUP                      :
          :.................................................:
          :  # frequencies                           4      :
          :  # imaginary freq.                       0      :
          :  linear?                              true      :
          :  only rotor calc.                    false      :
          :  symmetry                              cin      :
          :  rotational number                       1      :
          :  scaling factor                  1.0000000      :
          :  rotor cutoff                   50.0000000 cm⁻¹ :
          :  imag. cutoff                  -20.0000000 cm⁻¹ :
          :.................................................:

    mode    ω/cm⁻¹     T·S(HO)/kcal·mol⁻¹    T·S(FR)/kcal·mol⁻¹   T·S(vib)
   ------------------------------------------------------------------------
   ------------------------------------------------------------------------

   temp. (K)  partition function   enthalpy   heat capacity  entropy
                                   cal/mol     cal/K/mol   cal/K/mol   J/K/mol
 298.15  VIB   1.30                  355.595      2.933      1.721
         ROT   485.                  592.502      1.987     14.278
         INT   633.                  948.096      4.920     15.998
         TR   0.227E+27             1481.254      4.968     36.819
         TOT                        2429.3501     9.8882    52.8178   220.9898

   temp. (K)  partition function   enthalpy   heat capacity  entropy
                                   cal/mol     cal/K/mol   cal/K/mol   J/K/mol
 120.00  VIB   1.01                   13.844      0.602      0.138
         ROT   195.                  238.471      1.987     12.469
         INT   197.                  252.315      2.590     12.607
         TR   0.579E+26              596.178      4.968     32.300
         TOT                         848.4934     7.5578    44.9068   187.8902

   temp. (K)  partition function   enthalpy   heat capacity  entropy
                                   cal/mol     cal/K/mol   cal/K/mol   J/K/mol
 100.00  VIB   1.00                    4.883      0.305      0.057
         ROT   163.                  198.726      1.987     12.107
         INT   163.                  203.609      2.292     12.164
         TR   0.441E+26              496.815      4.968     31.395
         TOT                         700.4241     7.2603    43.5582   182.2477

   temp. (K)  partition function   enthalpy   heat capacity  entropy
                                   cal/mol     cal/K/mol   cal/K/mol   J/K/mol
  80.00  VIB   1.00                    1.027      0.100      0.015
         ROT   130.                  158.981      1.987     11.663
         INT   130.                  160.008      2.087     11.678
         TR   0.315E+26              397.452      4.968     30.287
         TOT                         557.4597     7.0554    41.9645   175.5794

   temp. (K)  partition function   enthalpy   heat capacity  entropy
                                   cal/mol     cal/K/mol   cal/K/mol   J/K/mol
  60.00  VIB   1.00                    0.077      0.013      0.001
         ROT   97.7                  119.236      1.987     11.092
         INT   97.7                  119.312      2.001     11.093
         TR   0.205E+26              298.089      4.968     28.858
         TOT                         417.4011     6.9687    39.9510   167.1552

   temp. (K)  partition function   enthalpy   heat capacity  entropy
                                   cal/mol     cal/K/mol   cal/K/mol   J/K/mol
  40.00  VIB   1.00                    0.000      0.000     -0.000
         ROT   65.1                   79.490      1.987     10.286
         INT   65.1                   79.491      1.987     10.286
         TR   0.111E+26              198.726      4.968     26.845
         TOT                         278.2168     6.9556    37.1303   155.3533

   temp. (K)  partition function   enthalpy   heat capacity  entropy
                                   cal/mol     cal/K/mol   cal/K/mol   J/K/mol
  20.00  VIB   1.00                    0.000      0.000     -0.000
         ROT   32.6                   39.745      1.987      8.908
         INT   32.6                   39.745      1.987      8.908
         TR   0.394E+25               99.363      4.968     23.403
         TOT                         139.1082     6.9554    32.3106   135.1876

   temp. (K)  partition function   enthalpy   heat capacity  entropy
                                   cal/mol     cal/K/mol   cal/K/mol   J/K/mol
  10.00  VIB   1.00                    0.000      0.000     -0.001
         ROT   16.3                   19.873      1.987      7.531
         INT   16.3                   19.873      1.987      7.530
         TR   0.139E+25               49.681      4.968     19.961
         TOT                          69.5541     6.9554    27.4909   115.0221

       T/K    H(0)-H(T)+PV         H(T)/Eh          T*S/Eh         G(T)/Eh
   ------------------------------------------------------------------------
    298.15    0.387142E-02    0.133554E-01    0.250955E-01   -0.117401E-01
    120.00    0.135216E-02    0.108361E-01    0.858763E-02    0.224848E-02
    100.00    0.111620E-02    0.106002E-01    0.694145E-02    0.365870E-02
     80.00    0.888369E-03    0.103723E-01    0.534997E-02    0.502235E-02
     60.00    0.665171E-03    0.101491E-01    0.381996E-02    0.632916E-02
     40.00    0.443367E-03    0.992732E-02    0.236684E-02    0.756048E-02
     20.00    0.221683E-03    0.970564E-02    0.102981E-02    0.867583E-02
     10.00    0.110842E-03    0.959479E-02    0.438096E-03    0.915670E-02 (used)
   ------------------------------------------------------------------------

         :::::::::::::::::::::::::::::::::::::::::::::::::::::
         ::                  THERMODYNAMIC                  ::
         :::::::::::::::::::::::::::::::::::::::::::::::::::::
         :: total free energy          -6.879254290944 Eh   ::
         ::.................................................::
         :: total energy               -6.888410989835 Eh   ::
         :: zero point energy           0.009483953320 Eh   ::
         :: G(RRHO) w/o ZPVE           -0.000327254429 Eh   ::
         :: G(RRHO) contrib.            0.009156698891 Eh   ::
         :::::::::::::::::::::::::::::::::::::::::::::::::::::

optimized geometry written to: xtbopt.xyz


           -------------------------------------------------
          | TOTAL ENERGY               -6.888410989835 Eh   |
          | TOTAL ENTHALPY             -6.878816195001 Eh   |
          | TOTAL FREE ENERGY          -6.879254290944 Eh   |
          | GRADIENT NORM               0.000399100199 Eh/α |
          | HOMO-LUMO GAP               6.155212433592 eV   |
           -------------------------------------------------

------------------------------------------------------------------------
 * finished run on 2020/05/12 at 11:43:53.800     
------------------------------------------------------------------------
 total:
 * wall-time:     0 d,  0 h,  0 min,  0.056 sec
 *  cpu-time:     0 d,  0 h,  0 min,  0.056 sec
 * ratio c/w:     0.998 speedup
 SCF:
 * wall-time:     0 d,  0 h,  0 min,  0.002 sec
 *  cpu-time:     0 d,  0 h,  0 min,  0.002 sec
 * ratio c/w:     0.999 speedup
 ANC optimizer:
 * wall-time:     0 d,  0 h,  0 min,  0.017 sec
 *  cpu-time:     0 d,  0 h,  0 min,  0.017 sec
 * ratio c/w:     0.999 speedup
 numerical hessian:
 * wall-time:     0 d,  0 h,  0 min,  0.022 sec
 *  cpu-time:     0 d,  0 h,  0 min,  0.022 sec
 * ratio c/w:     1.000 speedup

