$hessian                                                                        
        0.3262135534   0.0886412717   0.0203490277  -0.0121457847  -0.0076624888
        0.0012233140  -0.2169276295  -0.2818491583  -0.0113739772  -0.0971401392
        0.2008703754  -0.0101983644
        0.0886412717   0.3057129125  -0.0002576066   0.1329429767  -0.2667841772
        0.0160038514  -0.2761535803   0.1034646366  -0.0226965733   0.0545693319
       -0.1423933720   0.0069503285
        0.0203490277  -0.0002576066   0.0284017891  -0.0022001096   0.0053288628
       -0.0268052477  -0.0114716833  -0.0230616285   0.0265698007  -0.0066772347
        0.0179903723  -0.0281663421
       -0.0121457847   0.1329429767  -0.0022001096   0.1663866805  -0.2426194058
        0.0165496954  -0.1482403496   0.0709068496  -0.0109173077  -0.0060005462
        0.0387695794  -0.0034322780
       -0.0076624888  -0.2667841772   0.0053288628  -0.2426194058   0.4475320466
       -0.0286382132   0.2115191508  -0.1297160296   0.0184297308   0.0387627438
       -0.0510318398   0.0048796196
        0.0012233140   0.0160038514  -0.0268052477   0.0165496954  -0.0286382132
        0.0281008936  -0.0144501186   0.0079011566  -0.0277848655  -0.0033228907
        0.0047332052   0.0264892196
       -0.2169276295  -0.2761535803  -0.0114716833  -0.1482403496   0.2115191508
       -0.0144501186   0.3857010622   0.0543049031   0.0257180698  -0.0205330831
        0.0103295265   0.0002037321
       -0.2818491583   0.1034646366  -0.0230616285   0.0709068496  -0.1297160296
        0.0079011566   0.0543049031   0.2458018051  -0.0012967854   0.1566374056
       -0.2195504122   0.0164572572
       -0.0113739772  -0.0226965733   0.0265698007  -0.0109173077   0.0184297308
       -0.0277848655   0.0257180698  -0.0012967854   0.0288329617  -0.0034267849
        0.0055636278  -0.0276178969
       -0.0971401392   0.0545693319  -0.0066772347  -0.0060005462   0.0387627438
       -0.0033228907  -0.0205330831   0.1566374056  -0.0034267849   0.1236737685
       -0.2499694813   0.0134269103
        0.2008703754  -0.1423933720   0.0179903723   0.0387695794  -0.0510318398
        0.0047332052   0.0103295265  -0.2195504122   0.0055636278  -0.2499694813
        0.4129756240  -0.0282872053
       -0.0101983644   0.0069503285  -0.0281663421  -0.0034322780   0.0048796196
        0.0264892196   0.0002037321   0.0164572572  -0.0276178969   0.0134269103
       -0.0282872053   0.0292950195
