4
 energy: -10.070556687933 gnorm: 0.183439577637 xtb: 6.2.2 (9d81278992624c895f80dd42a50cac0aa55982e2)
C        -0.84561200000000   -0.52996600000000   -0.05054400000000
C        -0.54174400000000    0.94001700000000   -0.06385100000000
C         0.87940800000000    0.47132400000000    0.05452800000000
O         0.50794800000000   -0.88137500000000    0.05986700000000
4
 energy: -10.114845062382 gnorm: 0.143568393516 xtb: 6.2.2 (9d81278992624c895f80dd42a50cac0aa55982e2)
C        -0.77738692595592   -0.46515938462511   -0.04700053622564
C        -0.54448452912026    0.94477362140644   -0.06418125719443
C         0.78941215231825    0.44429192066522    0.04843411224274
O         0.53245930275792   -0.92390615744655    0.06274768117733
4
 energy: -10.056416079663 gnorm: 0.648256770106 xtb: 6.2.2 (9d81278992624c895f80dd42a50cac0aa55982e2)
C        -0.53862628172263   -0.27257109353279   -0.03379145763854
C        -0.58528009978826    1.01556216572226   -0.06898394701779
C         0.50401185401091    0.33263303682872    0.02971616802372
O         0.61989452749997   -1.07562410901819    0.07305923663261
4
 energy: -10.155052137298 gnorm: 0.063778937942 xtb: 6.2.2 (9d81278992624c895f80dd42a50cac0aa55982e2)
C        -0.67394097765012   -0.38640313999690   -0.04116384050737
C        -0.57697849071395    1.00115646071168   -0.06800721545821
C         0.66980573854086    0.39357861930794    0.04068451890782
O         0.58111372982321   -1.00833194002272    0.06848653705775
4
 energy: -10.157244862238 gnorm: 0.033460832026 xtb: 6.2.2 (9d81278992624c895f80dd42a50cac0aa55982e2)
C        -0.65870553100714   -0.38572658974730   -0.04004048513320
C        -0.58048565826120    1.00724141159738   -0.06841541763373
C         0.66162464209756    0.38066326045191    0.04038155242810
O         0.57756654717079   -1.00217808230199    0.06807435033883
4
 energy: -10.158112263675 gnorm: 0.007778600518 xtb: 6.2.2 (9d81278992624c895f80dd42a50cac0aa55982e2)
C        -0.63947700806117   -0.38203567033168   -0.03866796355718
C        -0.58615853367095    1.01708661364912   -0.06910052240731
C         0.64884673055580    0.36577656655027    0.03980452913390
O         0.57678881117632   -1.00082750986772    0.06796395683059
4
 energy: -10.158144377408 gnorm: 0.001856262116 xtb: 6.2.2 (9d81278992624c895f80dd42a50cac0aa55982e2)
C        -0.64067949982689   -0.38132994349727   -0.03881802438829
C        -0.58643667167810    1.01756514351077   -0.06909363288695
C         0.64884066306321    0.36717693353552    0.03972733892903
O         0.57827550844178   -1.00341213354903    0.06818431834622
4
 energy: -10.158146841826 gnorm: 0.000871394392 xtb: 6.2.2 (9d81278992624c895f80dd42a50cac0aa55982e2)
C        -0.64030065801468   -0.38068680064716   -0.03866654621664
C        -0.58703779647629    1.01862238621644   -0.06929470450095
C         0.64808368792109    0.36716238729255    0.03980959455312
O         0.57925476656988   -1.00509797286183    0.06815165616447
