[Molden Format]
[Title]
[Atoms] AU
C      1     6 -0.12099967905710E+01 -0.71938751774802E+00 -0.73063696504262E-01
C      2     6 -0.11093309354626E+01  0.19249227356875E+01 -0.13094748852850E+00
C      3     6  0.12247044578708E+01  0.69383000964332E+00  0.75223737873245E-01
O      4     8  0.10946232681628E+01 -0.18993652275828E+01  0.12878744715951E+00
[GTO]
           1 0
 s           4   1.0000000000000000     
   51.049363095579913      -0.16312063210127389     
   8.7911227406887544      -0.19911024581000730     
  0.70640422258929825       0.31882047753655751     
  0.26922813413411617       0.12706504184240380     
 p           4   1.0000000000000000     
   5.8263656140800002       0.73716451545209605     
   1.5106896018720002       0.68216371614850257     
  0.53256483288000001       0.35783053929253711     
  0.21202323690600003        5.3983030275847881E-002

           2 0
 s           4   1.0000000000000000     
   51.049363095579913      -0.16312063210127389     
   8.7911227406887544      -0.19911024581000730     
  0.70640422258929825       0.31882047753655751     
  0.26922813413411617       0.12706504184240380     
 p           4   1.0000000000000000     
   5.8263656140800002       0.73716451545209605     
   1.5106896018720002       0.68216371614850257     
  0.53256483288000001       0.35783053929253711     
  0.21202323690600003        5.3983030275847881E-002

           3 0
 s           4   1.0000000000000000     
   51.049363095579913      -0.16312063210127389     
   8.7911227406887544      -0.19911024581000730     
  0.70640422258929825       0.31882047753655751     
  0.26922813413411617       0.12706504184240380     
 p           4   1.0000000000000000     
   5.8263656140800002       0.73716451545209605     
   1.5106896018720002       0.68216371614850257     
  0.53256483288000001       0.35783053929253711     
  0.21202323690600003        5.3983030275847881E-002

           4 0
 s           4   1.0000000000000000     
   69.137961906196551      -0.20478756370077797     
   11.906129132707308      -0.24997023136827334     
  0.95670827744340703       0.40025880240639616     
  0.36462520496073686       0.15952206667693555     
 p           4   1.0000000000000000     
   8.2124193257781641        1.1321556799186829     
   2.1293576997098116        1.0476840782254817     
  0.75066448202360914       0.54956508217158984     
  0.29885246543283073        8.2908486592766617E-002

[MO]
Sym=     1a
Ene=  -0.81300201004834316     
Spin= Alpha
Occup=     2.00000000
           1 -0.25031176643393604     
           2 -0.17107838510076762     
           3   1.7872115610282981E-002
           4  -1.3277117195378158E-002
           5  -7.5878340418512311E-002
           6  -2.4824587237918257E-002
           7   4.3076046481937504E-002
           8  -2.9312945408811312E-003
           9 -0.25030817877702416     
          10   6.9874224148533740E-002
          11  0.15772924237029803     
          12   1.3983676476826839E-003
          13 -0.55971436205649772     
          14  0.11082445969409219     
          15 -0.19229397128972786     
          16   1.3011981105947460E-002
Sym=     2a
Ene=  -0.72832940253690859     
Spin= Alpha
Occup=     2.00000000
           1 -0.22942797088404357     
           2   1.8389186955581616E-002
           3 -0.23351785154119920     
           4   7.1291784045877191E-003
           5 -0.34328449609002420     
           6  -6.0369412996400897E-002
           7  0.10475475786889384     
           8  -7.1441373172113501E-003
           9 -0.22943288904124215     
          10  0.19251529411594173     
          11 -0.13244222146788814     
          12   1.7734348214281735E-002
          13  0.53055231718080753     
          14  0.10163541063480760     
          15 -0.17636413584537813     
          16   1.1980156365842631E-002
Sym=     3a
Ene=  -0.67371262242179575     
Spin= Alpha
Occup=     2.00000000
           1 -0.35618933050734286     
           2   1.0527084074292653E-002
           3  0.21643112164828163     
           4  -4.4885545772623487E-003
           5  -1.0869168544843564E-006
           6   5.9055709404890480E-002
           7   3.4278752829391440E-002
           8   3.5968327104224946E-003
           9  0.35618515639973569     
          10  0.19218114966124750     
          11  -9.8772318475038229E-002
          12   1.6834725007659795E-002
          13   8.5891648548359271E-006
          14  0.55711601978252845     
          15  0.32336813444508633     
          16   3.3931806708847011E-002
Sym=     4a
Ene=  -0.63335424801124163     
Spin= Alpha
Occup=     2.00000000
           1   8.4527498374736240E-005
           2  -2.8286352002285464E-002
           3   9.1030838154769946E-003
           4  0.37888156251968619     
           5  -4.7375926982474515E-004
           6  -1.1194838625384068E-002
           7   3.6833225163048293E-003
           8  0.14870273601432063     
           9   8.4548584524267440E-005
          10  -2.8395762734552771E-002
          11   9.0392038566698193E-003
          12  0.37886951329581348     
          13  -5.9477380942252168E-004
          14  -5.0178348113278086E-002
          15   1.6813469240409020E-002
          16  0.66363162868501635     
Sym=     5a
Ene=  -0.62549357563236596     
Spin= Alpha
Occup=     2.00000000
           1   2.8009483671432123E-002
           2  0.14989336564910549     
           3 -0.19046983394393693     
           4   1.5509543462697631E-002
           5 -0.40308514203152007     
           6  -3.4665910358516157E-003
           7   6.0338827548117382E-003
           8  -6.2078527160189191E-004
           9   2.8008771675043884E-002
          10   8.9805381602971260E-002
          11 -0.22535536719935070     
          12   1.1850025877641817E-002
          13 -0.49720822399697845     
          14 -0.30954803759761768     
          15  0.53720462154592241     
          16  -3.7155486007874147E-002
Sym=     6a
Ene=  -0.58109854335388345     
Spin= Alpha
Occup=     2.00000000
           1  0.33792256384363867     
           2 -0.31044693642386906     
           3  0.18759147143429758     
           4  -2.7952397062651329E-002
           5   1.0274851381754159E-006
           6 -0.37252638739942190     
           7 -0.21623108804684521     
           8  -2.2689043077338107E-002
           9 -0.33792621929249494     
          10   7.2052782982167836E-003
          11 -0.36360152105713295     
          12   9.4830746291013103E-003
          13   4.0561909566994663E-006
          14  0.25364446054790801     
          15  0.14722104362441479     
          16   1.5448577764696188E-002
Sym=     7a
Ene=  -0.48540809676777286     
Spin= Alpha
Occup=     2.00000000
           1 -0.46090300530519296     
           2  0.44488053106358499     
           3  0.26655248673195636     
           4   2.6838155813813182E-002
           5  0.19011455479788353     
           6  -8.1953248651837021E-002
           7  0.14221769483724023     
           8  -9.7592881617584969E-003
           9 -0.46090557162922280     
          10 -0.45206876158663623     
          11 -0.25406717687331315     
          12  -2.7791567262642907E-002
          13   1.9635947432629149E-002
          14  -4.9044214743734632E-002
          15   8.5080479011088936E-002
          16  -5.6261609388035642E-003
Sym=     8a
Ene=  -0.46502768850106740     
Spin= Alpha
Occup=     2.00000000
           1  -6.4228970086384129E-005
           2  -2.4242249349580448E-002
           3   8.2664918740014554E-003
           4  0.32508736702628283     
           5  -6.2901071239310799E-004
           6  -4.0765908864185636E-002
           7   1.3023699181080010E-002
           8  0.54520787423107508     
           9  -6.4214895985887675E-005
          10  -2.4774156637950982E-002
          11   7.9588532603154724E-003
          12  0.32507092723201342     
          13   4.3961503614488058E-005
          14   5.1316005609576609E-002
          15  -1.6864095580517498E-002
          16 -0.68182787921010957     
Sym=     9a
Ene=  -0.44845941859054750     
Spin= Alpha
Occup=     2.00000000
           1   1.9629604059957312E-002
           2 -0.10374189657992439     
           3 -0.22938064438307104     
           4  -1.8464712188845564E-003
           5  0.62749949531819460     
           6 -0.32219378929764220     
           7  0.55901228497488686     
           8  -3.7494668053107270E-002
           9   1.9629371320978507E-002
          10  0.24982157896183091     
          11  -2.4158355746304039E-002
          12   1.9687665683888668E-002
          13   1.6350320985112303E-004
          14 -0.13389110172532448     
          15  0.23239615042819112     
          16  -1.6368589777000751E-002
Sym=    10a
Ene=  -0.37120153635072867     
Spin= Alpha
Occup=     0.00000000
           1   3.4849074988748297E-004
           2  -5.8025408222152561E-002
           3   1.8475451143343750E-002
           4  0.76767293411849158     
           5  -1.3322866197356970E-009
           6   5.4560473459495864E-004
           7   3.1699287310901482E-004
           8   3.7821917738103993E-005
           9  -3.4849536581814026E-004
          10   5.7210931338192876E-002
          11  -1.8947773640680760E-002
          12 -0.76771623790178167     
          13   2.9945121017335465E-009
          14   4.2787270533643936E-004
          15   2.4751389470096624E-004
          16   1.3550691373596961E-005
Sym=    11a
Ene=  -0.33162799316687180     
Spin= Alpha
Occup=     0.00000000
           1  0.26095103472476522     
           2 -0.32168305757152010     
           3 -0.38230257376373772     
           4  -1.5650878935012442E-002
           5  -1.8162696475978430E-006
           6  0.51400978145044640     
           7  0.29835365826508453     
           8   3.1306201651267240E-002
           9 -0.26095131991502013     
          10 -0.49068478566555762     
          11  -8.9227303258347629E-002
          12  -3.3827207704092296E-002
          13   1.1602449319940710E-006
          14  0.44412140421848978     
          15  0.25779164417451372     
          16   2.7049520197428602E-002
Sym=    12a
Ene=  -0.26050328727027910     
Spin= Alpha
Occup=     0.00000000
           1   8.7339328977365205E-005
           2  -3.5831172671059716E-002
           3   1.1743502578873015E-002
           4  0.47767216123909939     
           5   3.5585798771039776E-005
           6   6.4714124514287458E-002
           7  -2.1187161837780365E-002
           8 -0.86060916114013619     
           9   8.7356997838345651E-005
          10  -3.5948237556808080E-002
          11   1.1675742912478807E-002
          12  0.47766822341360987     
          13  -4.9314698025000488E-005
          14   2.7338030573412723E-002
          15  -8.9945699937696195E-003
          16 -0.36313740765681951     
Sym=    13a
Ene=    7.2015701394081644E-002
Spin= Alpha
Occup=     0.00000000
           1 -0.44167324831813654     
           2 -0.50094262251560462     
           3  0.20401340847977381     
           4  -4.2498842079169784E-002
           5   6.3985393407823277E-002
           6  0.16853517011468389     
           7 -0.29262807650921552     
           8   1.9765193477983518E-002
           9 -0.44174361132173701     
          10   7.3564766906113688E-002
          11  0.53775758796040329     
          12  -7.5147032427680159E-003
          13  0.68142942224567915     
          14 -0.42254243474898567     
          15  0.73339080429052872     
          16  -4.9680203294487746E-002
Sym=    14a
Ene=   0.10972215637112771     
Spin= Alpha
Occup=     0.00000000
           1  0.12657360438734877     
           2  0.57776067953634325     
           3 -0.54907684117268152     
           4   5.6935236983462076E-002
           5  -1.2522900754314535E-005
           6 -0.57818587750185180     
           7 -0.33554249772171557     
           8  -3.5216452262182181E-002
           9 -0.12642151096923793     
          10 -0.18614524914627414     
          11  0.77622333567802337     
          12  -3.3079557188719522E-002
          13  -1.1877085494156519E-004
          14  0.54414494517334777     
          15  0.31568020945845915     
          16   3.3145687336592768E-002
Sym=    15a
Ene=   0.20049363844862150     
Spin= Alpha
Occup=     0.00000000
           1  0.73579283386490335     
           2  0.56740658784272313     
           3  0.51976009074546115     
           4   2.9802660071346087E-002
           5  -2.4241480353386510E-005
           6  0.46135304588768039     
           7  0.26782772007679551     
           8   2.8098189134377068E-002
           9 -0.73575069576429064     
          10  0.73182694350752375     
          11  0.23439138851386385     
          12   4.9327862655262969E-002
          13  -1.2905263060661939E-005
          14  0.17516660193827593     
          15  0.10164934850535735     
          16   1.0669293957302026E-002
Sym=    16a
Ene=   0.37747261928384052     
Spin= Alpha
Occup=     0.00000000
           1 -0.36302711770701507     
           2  0.14950381870410423     
           3 -0.66146892288017711     
           4   2.7598468626082978E-002
           5  0.88935010031201733     
           6  0.46852378391764049     
           7 -0.81296016188749931     
           8   5.5405250597784408E-002
           9 -0.36307482520675283     
          10  0.49678902955816634     
          11 -0.45990191408910031     
          12   4.8750508774735142E-002
          13 -0.23459932353229521     
          14   5.2017595382799035E-002
          15  -9.0234998227751315E-002
          16   6.0331957362801201E-003
