[Molden Format]
[Title]
[Atoms] AU
C      1     6 -0.23413447698374E+01  0.20669000613925E+01  0.68091712983522E+00
C      2     6 -0.10045234208365E+01  0.10387338078204E+00  0.89974549600449E-01
C      3     6  0.16309208837051E+01 -0.18748357536788E+00 -0.15170917577834E+00
N      4     7  0.37766189810372E+01 -0.35976560650892E+00 -0.33448237974035E+00
H      5     1 -0.20616697843525E+01 -0.16235261500336E+01 -0.28470012392027E+00
[GTO]
           1 0
 s           4   1.0000000000000000     
   51.049363095579913      -0.16312063210127389     
   8.7911227406887544      -0.19911024581000730     
  0.70640422258929825       0.31882047753655751     
  0.26922813413411617       0.12706504184240380     
 p           4   1.0000000000000000     
   5.8263656140800002       0.73716451545209605     
   1.5106896018720002       0.68216371614850257     
  0.53256483288000001       0.35783053929253711     
  0.21202323690600003        5.3983030275847881E-002

           2 0
 s           4   1.0000000000000000     
   51.049363095579913      -0.16312063210127389     
   8.7911227406887544      -0.19911024581000730     
  0.70640422258929825       0.31882047753655751     
  0.26922813413411617       0.12706504184240380     
 p           4   1.0000000000000000     
   5.8263656140800002       0.73716451545209605     
   1.5106896018720002       0.68216371614850257     
  0.53256483288000001       0.35783053929253711     
  0.21202323690600003        5.3983030275847881E-002

           3 0
 s           4   1.0000000000000000     
   51.049363095579913      -0.16312063210127389     
   8.7911227406887544      -0.19911024581000730     
  0.70640422258929825       0.31882047753655751     
  0.26922813413411617       0.12706504184240380     
 p           4   1.0000000000000000     
   5.8263656140800002       0.73716451545209605     
   1.5106896018720002       0.68216371614850257     
  0.53256483288000001       0.35783053929253711     
  0.21202323690600003        5.3983030275847881E-002

           4 0
 s           4   1.0000000000000000     
   63.594024466941008      -0.19234388414721629     
   10.951417231523665      -0.23478107924953728     
  0.87999310257376984       0.37593753901700888     
  0.33538715296521110       0.14982889271862770     
 p           4   1.0000000000000000     
   7.2965040481495080       0.97658666315667420     
   1.8918745450712575       0.90372226730345739     
  0.66694432110824120       0.47404958461536373     
  0.26552202674130870        7.1516067715011844E-002

           5 0
 s           3   1.0000000000000000     
   3.3702276975336001       0.27359110588908298     
  0.61389118221497996       0.26460540653860526     
  0.16614291148415999        8.2465947534082318E-002

[MO]
Sym=     1a
Ene=  -0.68552719852343535     
Spin= Alpha
Occup=     2.00000000
           1 -0.40570354427406630     
           2  -8.7204520300826774E-002
           3  0.11638017073883843     
           4   3.5514567022504433E-002
           5 -0.48281561719465532     
           6  -4.2667123990252952E-003
           7  -9.4320662711626174E-002
           8  -2.4121219023132929E-002
           9 -0.32145586838986057     
          10   7.8636960102044476E-002
          11  -2.3055376445006149E-002
          12  -1.0837925221476308E-002
          13 -0.12653734861362043     
          14   7.9932301034090159E-002
          15  -9.1608883694205088E-003
          16  -7.4741191391579642E-003
          17 -0.13547408561330587     
Sym=     2a
Ene=  -0.67455425488799681     
Spin= Alpha
Occup=     2.00000000
           1 -0.22882721686547383     
           2  -2.2637416246827080E-002
           3   5.5459649562599578E-002
           4   1.5719263261385025E-002
           5 -0.13453111817098024     
           6  0.12312276287338920     
           7  -7.0390582661635406E-002
           8  -2.6008516277353174E-002
           9  0.40682354940902538     
          10  0.23969993277681645     
          11  -3.4446011739748185E-002
          12  -2.4334865171711285E-002
          13  0.48212456500295769     
          14 -0.19519286055768334     
          15   8.2589813722701265E-003
          16   1.4701288617720866E-002
          17  -4.2581465692748073E-002
Sym=     3a
Ene=  -0.62027559037772662     
Spin= Alpha
Occup=     2.00000000
           1 -0.45401115180134388     
           2   2.3924712996162546E-002
           3   2.2743515430157287E-002
           4   4.3858651680163899E-003
           5  0.17504316418497920     
           6  0.30673480401933767     
           7 -0.25071919967697276     
           8  -8.3931495487640437E-002
           9  0.23736412602918122     
          10 -0.33711265758323805     
          11  -3.6242354133589810E-002
          12   1.2158596776396070E-002
          13 -0.27730884565879349     
          14  -6.7269690708627932E-003
          15  -2.2376626074999038E-002
          16  -5.4210737545200586E-003
          17  0.12178161463468046     
Sym=     4a
Ene=  -0.57128402941025480     
Spin= Alpha
Occup=     2.00000000
           1 -0.11874904968324947     
           2 -0.15788845081202302     
           3 -0.13960001124528085     
           4  -2.5729422149335702E-002
           5  0.10342433009793679     
           6 -0.32989682183204211     
           7 -0.34609616869652682     
           8  -6.7744403619645260E-002
           9 -0.16821444332083876     
          10  0.12374440982090891     
          11 -0.25132845985585062     
          12  -7.2340331256917037E-002
          13  0.16468806893682636     
          14   3.3088247513055932E-002
          15 -0.15191945343006957     
          16  -4.1035815952584147E-002
          17  0.40953981863328831     
Sym=     5a
Ene=  -0.53184694491616247     
Spin= Alpha
Occup=     2.00000000
           1   1.4480284218169239E-004
           2   1.1133685837279932E-002
           3  -4.4689753116253284E-002
           4  0.17416941695387611     
           5  -3.1481245089258307E-004
           6   2.1497773540468317E-002
           7  -8.6336239889840127E-002
           8  0.33618691359926761     
           9   5.1457992638528894E-004
          10   3.4831781020684731E-002
          11 -0.13976551002893672     
          12  0.54414710167120506     
          13  -3.7305473473311300E-004
          14   3.1863068787852840E-002
          15 -0.12798707993005454     
          16  0.49828691552117355     
          17   3.4715196050656836E-006
Sym=     6a
Ene=  -0.50954701790241086     
Spin= Alpha
Occup=     2.00000000
           1  0.27647259498777638     
           2  -2.9684361490223011E-002
           3  0.15492592250169715     
           4   4.1708562512971337E-002
           5  -9.4570709047884130E-002
           6   9.3410969961126147E-002
           7   7.4808631952054686E-002
           8   1.3208122134629822E-002
           9   9.4501500533035465E-002
          10  -9.4620907855037351E-002
          11 -0.49409522051718835     
          12 -0.12097431872837908     
          13 -0.12386817123486808     
          14 -0.14411783799977032     
          15 -0.58672772227027259     
          16 -0.14158591696043543     
          17 -0.16946249629609761     
Sym=     7a
Ene=  -0.46842644081365764     
Spin= Alpha
Occup=     2.00000000
           1 -0.26926304374614235     
           2  0.32620788240569043     
           3 -0.13233362966167309     
           4  -5.4779908305478749E-002
           5  0.16447459958565844     
           6  0.11861162802086289     
           7  0.14123305562243091     
           8   2.8969599594182372E-002
           9 -0.19203022727779256     
          10 -0.12488605242099073     
          11  -6.8322720162616701E-002
          12  -9.2720366358895016E-003
          13  0.54593772122504181     
          14  0.53334980705907353     
          15 -0.23940685108544524     
          16  -9.5550575014761302E-002
          17 -0.11188291164018878     
Sym=     8a
Ene=  -0.46247851079616781     
Spin= Alpha
Occup=     2.00000000
           1  -1.1282355139040038E-003
           2  -3.4538838528775408E-002
           3  0.14036479651117476     
           4 -0.55006495725559046     
           5   6.1391238542151045E-004
           6  -3.4298353045319363E-002
           7  0.13693055141973023     
           8 -0.53104580544693680     
           9   1.1235793746108476E-004
          10   1.0283548113788416E-002
          11  -3.9939362560387992E-002
          12  0.15472783649106156     
          13  -7.5613768585054751E-004
          14   2.7520586310419266E-002
          15 -0.11323790082157707     
          16  0.43942219333367188     
          17  -3.2985263055693685E-004
Sym=     9a
Ene=  -0.44421572421675043     
Spin= Alpha
Occup=     2.00000000
           1  0.45424311988836208     
           2 -0.30496459533575243     
           3  0.50115611641717339     
           4  0.14707165317518370     
           5  -7.2175711715537119E-002
           6  0.18681350784040437     
           7 -0.22701068218577924     
           8  -7.1532847451559939E-002
           9   2.9354631051560706E-003
          10 -0.17137903766853307     
          11   4.9342536063943565E-002
          12   2.4015391374231788E-002
          13  0.29872441201623723     
          14  0.38090823156204545     
          15  0.14097368414656641     
          16   1.2838116262588522E-002
          17  0.13133964942148943     
Sym=    10a
Ene=  -0.36130398975207995     
Spin= Alpha
Occup=     0.00000000
           1   1.5718786433781159E-004
           2  0.75472360906085234     
           3  0.54838295375242041     
           4   9.2803840066436230E-002
           5  -4.4624131819119154E-003
           6  -7.1686176855691675E-002
           7  -7.3384238680190408E-002
           8  -1.4333266767359762E-002
           9 -0.16151280749531768     
          10  0.18044624395654188     
          11  -2.1011009884414063E-002
          12  -1.7079199560906314E-002
          13  -7.6668298230672519E-002
          14 -0.15367941568712670     
          15   3.0862468993184330E-002
          16   1.7903599321235180E-002
          17  0.32591341696084480     
Sym=    11a
Ene=  -0.29746633478343654     
Spin= Alpha
Occup=     0.00000000
           1  -1.0615158954312937E-004
           2  -4.3758696783236281E-002
           3  0.17671221437818085     
           4 -0.68672338777767683     
           5  -5.4988860085792950E-004
           6   2.7588280675381504E-002
           7 -0.11191900541541899     
           8  0.43610355374754556     
           9   4.7057358052752726E-004
          10   2.7460903878602984E-002
          11 -0.11104474729458859     
          12  0.43206366187576423     
          13   8.7012874613711939E-005
          14  -3.4824465436821252E-002
          15  0.13955431046046263     
          16 -0.54287881181307351     
          17   2.7058408329420414E-004
Sym=    12a
Ene=  -0.23583529082843355     
Spin= Alpha
Occup=     0.00000000
           1   5.2264313599394971E-002
           2  0.13681921169551797     
           3  -9.2905500313901920E-002
           4  -3.2525981950795833E-002
           5   1.3398663422437122E-002
           6  -2.1532912673035705E-002
           7  -4.9282191291465088E-003
           8   5.9654431084369653E-005
           9   2.5233604535455815E-002
          10 -0.10196022566998453     
          11 -0.81344955405137553     
          12 -0.20241907564363212     
          13   4.8420356053157842E-003
          14   8.8324451909263468E-002
          15  0.74343721087778791     
          16  0.18531350967224963     
          17 -0.22848818095450660     
Sym=    13a
Ene=  -0.16088665782048597     
Spin= Alpha
Occup=     0.00000000
           1   1.1451846380219342E-006
           2   2.7529205871333534E-002
           3 -0.10992474447538270     
           4  0.42814507660078699     
           5   3.6377940271796564E-004
           6  -4.2687183351297585E-002
           7  0.17002428086272448     
           8 -0.66240937886066154     
           9   5.9737574739438231E-004
          10   4.6969217635492486E-002
          11 -0.18838633994878196     
          12  0.73384554365630639     
          13  -2.2232182670547806E-005
          14  -3.3404234971483204E-002
          15  0.13405301127186661     
          16 -0.52221159920740601     
          17  -2.3457113152695023E-004
Sym=    14a
Ene=   0.11776343742325300     
Spin= Alpha
Occup=     0.00000000
           1   6.6265856371246351E-002
           2  0.17781348390345128     
           3 -0.19751528175815289     
           4  -6.1891704213153841E-002
           5  -1.0060282916710757     
           6 -0.23081165250305516     
           7  0.35804819085215822     
           8  0.10588252494420179     
           9  0.74683497905535767     
          10 -0.27299598970049249     
          11  -2.7770259646790470E-002
          12   9.5991697936615907E-003
          13 -0.17136532923555059     
          14  0.38067961019755914     
          15  -7.4284522204765739E-003
          16  -2.6071206075372978E-002
          17  0.67433103118544946     
Sym=    15a
Ene=   0.23264329546998663     
Spin= Alpha
Occup=     0.00000000
           1  -8.3672852400527173E-002
           2 -0.28929958851531495     
           3  -9.6603900441153079E-002
           4  -6.1980375549154643E-003
           5 -0.10280732066985097     
           6  0.84985907020649176     
           7  0.68355187699955133     
           8  0.12093055145375864     
           9 -0.63426435060202913     
          10  0.19717630166341527     
          11 -0.21156148667870087     
          12  -6.6157390620296186E-002
          13  0.12837813135814896     
          14 -0.25636900092573356     
          15  0.10217112554915668     
          16   4.2431893005736951E-002
          17  0.86614815961451208     
Sym=    16a
Ene=   0.61506220892906960     
Spin= Alpha
Occup=     0.00000000
           1 -0.81069220761070382     
           2 -0.50611786248781321     
           3  0.77371632587775752     
           4  0.23161311770784579     
           5  0.65436585516273893     
           6 -0.63331745780672810     
           7  0.85768067655260771     
           8  0.26123708956085012     
           9  0.35179846502749601     
          10  -4.1957926539924464E-003
          11 -0.15934067254923998     
          12  -4.1102542086832124E-002
          13 -0.13775943640002983     
          14  0.18717251998263160     
          15   3.9090348766219384E-002
          16  -1.9030968574319967E-003
          17   9.5023340964249595E-002
Sym=    17a
Ene=    1.1575536325659452     
Spin= Alpha
Occup=     0.00000000
           1  0.13348765017334963     
           2   1.8357364562328845E-003
           3 -0.12237442324994714     
           4  -3.1741189268761093E-002
           5  0.36283203663691360     
           6  0.54104204279735479     
           7 -0.13692947811150399     
           8  -6.9265796886333886E-002
           9  0.52482587346007337     
          10   1.3933010199533307     
          11 -0.11019997117684517     
          12 -0.11772713702592404     
          13 -0.98621355411641498     
          14  0.93387828173135090     
          15  -7.6391983983085207E-002
          16  -8.0060202549002535E-002
          17   1.2140963698924517E-002
