5
 energy: -9.412754373277 gnorm: 0.393399757172 xtb: 6.2.2 (9d81278992624c895f80dd42a50cac0aa55982e2)
C        -1.02040600000000    1.25725500000000    0.10943400000000
C        -0.59483600000000   -0.17257400000000    0.38424500000000
C         0.90820200000000   -0.25374500000000    0.59978500000000
N         1.61607200000000    0.00418200000000   -0.64371100000000
H        -0.90903100000000   -0.83511900000000   -0.44975300000000
5
 energy: -9.551425285873 gnorm: 0.241545807825 xtb: 6.2.2 (9d81278992624c895f80dd42a50cac0aa55982e2)
C        -1.03352268933672    1.18148418723174    0.15148400114476
C        -0.55968218178342   -0.10334712053787    0.33325310364595
C         0.89319039548099   -0.21347055512181    0.44906809089438
N         1.63995739724445   -0.03392025403515   -0.52641361557662
H        -0.93994192160529   -0.83074725753692   -0.40739158010847
5
 energy: -9.534494110834 gnorm: 0.749001048675 xtb: 6.2.2 (9d81278992624c895f80dd42a50cac0aa55982e2)
C        -1.03672327480460    1.09752309822189    0.17699361055110
C        -0.55292707177531   -0.02861757210830    0.30682181465390
C         0.89117273460202   -0.19141000006561    0.26148885454585
N         1.65792803802920   -0.05816935660868   -0.38770174871755
H        -0.95944942605131   -0.81932716943929   -0.35760253103330
5
 energy: -9.598763530017 gnorm: 0.222133727120 xtb: 6.2.2 (9d81278992624c895f80dd42a50cac0aa55982e2)
C        -1.08475798989912    1.10735046029719    0.21877922525192
C        -0.58048455046583   -0.02011788548197    0.29822393174689
C         0.81649553589441   -0.17660226744275    0.20807991483236
N         1.84618503340465   -0.07110383607026   -0.41159067761632
H        -0.99743702893412   -0.83952747130220   -0.31349239421485
5
 energy: -9.601641134882 gnorm: 0.174417644760 xtb: 6.2.2 (9d81278992624c895f80dd42a50cac0aa55982e2)
C        -1.24124316090429    1.19919381080107    0.28552847060424
C        -0.51088803192661   -0.00519841775112    0.20349727309521
C         0.88259939921204   -0.15955769953774    0.21850041237152
N         1.89494474480120   -0.16115642248871   -0.39229624405975
H        -1.02541195118235   -0.87328227102350   -0.31522991201123
5
 energy: -9.618752192020 gnorm: 0.113676096063 xtb: 6.2.2 (9d81278992624c895f80dd42a50cac0aa55982e2)
C        -1.20610448463615    1.15371668644163    0.26545089197186
C        -0.54345132932627    0.00543366419720    0.21433946555434
C         0.87262393370139   -0.17733200181393    0.12666256341094
N         1.95392443977602   -0.11381366840563   -0.34008838597915
H        -1.07699155951499   -0.86800568041927   -0.26636453495799
5
 energy: -9.618956794807 gnorm: 0.103822548063 xtb: 6.2.2 (9d81278992624c895f80dd42a50cac0aa55982e2)
C        -1.17919680881214    1.08126513125594    0.29104990395512
C        -0.56476778693466   -0.00438065869100    0.21969265496050
C         0.85333351535629   -0.09261400774228    0.11849402826037
N         1.90572085312939   -0.18051687717073   -0.33914376711422
H        -1.01508877273888   -0.80375458765193   -0.29009282006177
5
 energy: -9.627919010085 gnorm: 0.043428334080 xtb: 6.2.2 (9d81278992624c895f80dd42a50cac0aa55982e2)
C        -1.20302412045956    1.11052042446427    0.30289532192670
C        -0.53553875338297    0.02586427844785    0.15576859124918
C         0.86681146311485   -0.13027215588627    0.06988630134469
N         1.95915901828182   -0.14709825373747   -0.28981137895644
H        -1.08740660755413   -0.85901529328838   -0.23873883556413
5
 energy: -9.624809527929 gnorm: 0.154717689880 xtb: 6.2.2 (9d81278992624c895f80dd42a50cac0aa55982e2)
C        -1.29284821118700    1.10538944974101    0.35783017227624
C        -0.52899833460440    0.05793240900986    0.11316097745656
C         0.86911356129294   -0.09485578666700   -0.00472855295396
N         2.03344696244751   -0.22429544049652   -0.25086973004272
H        -1.08071297794906   -0.84417163158735   -0.21539286673613
5
 energy: -9.630239122884 gnorm: 0.050825873276 xtb: 6.2.2 (9d81278992624c895f80dd42a50cac0aa55982e2)
C        -1.27008782584076    1.11734243888830    0.31798139866559
C        -0.51769227359122    0.05455682410171    0.09576714865836
C         0.87575197990311   -0.16533197916804   -0.01494888042758
N         1.99369958097756   -0.16248532087680   -0.22852103681550
H        -1.08167046144869   -0.84408296294518   -0.17027863008086
5
 energy: -9.631451006855 gnorm: 0.034482695529 xtb: 6.2.2 (9d81278992624c895f80dd42a50cac0aa55982e2)
C        -1.21226921262771    1.09669577246317    0.32117490977182
C        -0.52471309140792    0.04081657801866    0.08486275790669
C         0.86659084657213   -0.13320174834666   -0.02388158586372
N         1.99613538888176   -0.14004094338327   -0.21410449368226
H        -1.12574293141826   -0.86427065875190   -0.16805158813254
5
 energy: -9.632324895886 gnorm: 0.012502301726 xtb: 6.2.2 (9d81278992624c895f80dd42a50cac0aa55982e2)
C        -1.23195491687126    1.09759029120960    0.33180987696980
C        -0.52721615786025    0.04110735815837    0.08133280320605
C         0.86564422254940   -0.12295009333523   -0.03594413263965
N         1.99799133342381   -0.16398542280056   -0.21023733017839
H        -1.10446348124170   -0.85176313323218   -0.16696121735781
5
 energy: -9.632601664586 gnorm: 0.018458827537 xtb: 6.2.2 (9d81278992624c895f80dd42a50cac0aa55982e2)
C        -1.24043284852877    1.09595257724468    0.34452910198798
C        -0.52619050205607    0.04710007777739    0.05928877202116
C         0.86650089547726   -0.11553798147410   -0.05971191274849
N         2.00540437271648   -0.17423231538210   -0.19158056225609
H        -1.10528091760890   -0.85328335816587   -0.15252539900456
5
 energy: -9.632742329951 gnorm: 0.008254660561 xtb: 6.2.2 (9d81278992624c895f80dd42a50cac0aa55982e2)
C        -1.23787615518760    1.09245717169085    0.35399121207330
C        -0.52980952572703    0.04783863477589    0.04955328633122
C         0.86547795176657   -0.10248740728979   -0.06927753844871
N         2.00003439902886   -0.18472187969463   -0.18370959764146
H        -1.09782566988081   -0.85308751948233   -0.15055736231435
5
 energy: -9.632788707752 gnorm: 0.003563316530 xtb: 6.2.2 (9d81278992624c895f80dd42a50cac0aa55982e2)
C        -1.23664185673590    1.09214750766241    0.35682007795052
C        -0.53106247895578    0.05195306410597    0.04370025253645
C         0.86417537850822   -0.10322072529726   -0.07930090305397
N         2.00124175198102   -0.18392432247246   -0.17641769109862
H        -1.09771179479756   -0.85695652399867   -0.14480173633438
5
 energy: -9.632795011257 gnorm: 0.001483128887 xtb: 6.2.2 (9d81278992624c895f80dd42a50cac0aa55982e2)
C        -1.23617960913982    1.09281155933606    0.35761490793053
C        -0.53119922618117    0.05306715600597    0.04395824433035
C         0.86357137474975   -0.10288919297102   -0.07937874096102
N         1.99972861786573   -0.18456710347156   -0.17643634001124
H        -1.09592015729450   -0.85842341889945   -0.14575807128862
5
 energy: -9.632801267095 gnorm: 0.001537458174 xtb: 6.2.2 (9d81278992624c895f80dd42a50cac0aa55982e2)
C        -1.23733373133283    1.09349519198584    0.35968597897916
C        -0.53193097982629    0.05480733162784    0.04594069848232
C         0.86257331054923   -0.10066569844692   -0.08070421880908
N         1.99830621480616   -0.18820456712860   -0.17644060938698
H        -1.09161381419628   -0.85943325803816   -0.14848184926541
5
 energy: -9.632803488576 gnorm: 0.000303848688 xtb: 6.2.2 (9d81278992624c895f80dd42a50cac0aa55982e2)
C        -1.23899339466356    1.09374939496745    0.36032344510599
C        -0.53157140544126    0.05496456463312    0.04761072602468
C         0.86304704420554   -0.09920738569550   -0.08027820650290
N         1.99850249908406   -0.19036900485365   -0.17699382539747
H        -1.09098374318479   -0.85913856905143   -0.15066213923029
