 Entering Gaussian System
 *********************************************
 Gaussian 98:
 frequency output generated by the xtb code
 *********************************************
                         Standard orientation:
 --------------------------------------------------------------------
  Center     Atomic     Atomic              Coordinates (Angstroms)
  Number     Number      Type              X           Y           Z
 --------------------------------------------------------------------
    1          6             0        0.942770    0.018483   -0.015267
    2          6             0        0.019383   -0.086034    1.092780
    3          6             0       -0.942771   -0.018485    0.015266
    4          6             0        0.007652   -0.903324   -0.621203
    5          6             0       -0.027033    0.989359   -0.471575
 --------------------------------------------------------------------
     1 basis functions        1 primitive gaussians
     1 alpha electrons        1 beta electrons

 Harmonic frequencies (cm**-1), IR intensities (KM/Mole),
 Raman scattering activities (A**4/amu), Raman depolarization ratios,
 reduced masses (AMU), force constants (mDyne/A) and normal coordinates:
                      1                      2                      3
                        a                      a                      a 
 Frequencies --   465.2553               465.6474               664.1638
 Red. masses --    12.0107                12.0107                12.0107
 Frc consts  --     0.0000                 0.0000                 0.0000
 IR Inten    --     0.5295                 0.5206                 0.0261
 Raman Activ --     0.0000                 0.0000                 0.0000
 Depolar     --     0.0000                 0.0000                 0.0000
 Atom AN      X      Y      Z        X      Y      Z        X      Y      Z
   1   6     0.00  -0.33  -0.18    -0.01   0.18  -0.32     0.48   0.01  -0.01
   2   6    -0.01   0.61  -0.03     0.00  -0.27  -0.18    -0.01   0.03  -0.43
   3   6     0.00  -0.32  -0.18    -0.01   0.18  -0.32    -0.48  -0.01   0.01
   4   6     0.00  -0.11  -0.15     0.02  -0.39   0.54    -0.00   0.35   0.24
   5   6     0.01   0.15   0.54    -0.00   0.30   0.29     0.01  -0.39   0.18
                      4                      5                      6
                        a                      a                      a 
 Frequencies --   882.6977               882.7014              1123.8243
 Red. masses --    12.0107                12.0107                12.0107
 Frc consts  --     0.0000                 0.0000                 0.0000
 IR Inten    --     0.0298                 0.0294                 1.5770
 Raman Activ --     0.0000                 0.0000                 0.0000
 Depolar     --     0.0000                 0.0000                 0.0000
 Atom AN      X      Y      Z        X      Y      Z        X      Y      Z
   1   6     0.01  -0.11   0.49     0.01  -0.49  -0.11    -0.55  -0.00   0.00
   2   6     0.57   0.01  -0.01    -0.08  -0.00   0.00     0.37   0.01   0.00
   3   6    -0.01   0.11  -0.49    -0.01   0.49   0.11    -0.55  -0.00   0.00
   4   6    -0.22  -0.00   0.00     0.53   0.01  -0.01     0.36   0.00  -0.01
   5   6    -0.35  -0.01   0.00    -0.46  -0.01   0.01     0.37  -0.01  -0.00
                      7                      8                      9
                        a                      a                      a 
 Frequencies --  1136.7546              1137.1785              1398.4877
 Red. masses --    12.0107                12.0107                12.0107
 Frc consts  --     0.0000                 0.0000                 0.0000
 IR Inten    --     0.9659                 0.9609                 0.0209
 Raman Activ --     0.0000                 0.0000                 0.0000
 Depolar     --     0.0000                 0.0000                 0.0000
 Atom AN      X      Y      Z        X      Y      Z        X      Y      Z
   1   6    -0.00  -0.07   0.40     0.00   0.40   0.07    -0.52  -0.01   0.01
   2   6    -0.01   0.04  -0.66    -0.01   0.13  -0.05    -0.01   0.03  -0.39
   3   6    -0.00  -0.07   0.40     0.00   0.40   0.07     0.52   0.01  -0.01
   4   6     0.01  -0.29  -0.07    -0.00  -0.46  -0.38    -0.00   0.32   0.22
   5   6    -0.00   0.39  -0.07     0.01  -0.46   0.30     0.01  -0.35   0.17
