$hessian                                                                        
        0.4604476547   0.0051635146  -0.0044908928  -0.1105238779  -0.0128874057
        0.1384544887  -0.1161031748  -0.0026836258   0.0019824545  -0.1130580871
       -0.1167840375  -0.0765549016  -0.1207625149   0.1271915545  -0.0593911489
        0.0051635146   0.1975536400  -0.0000213746  -0.0100351257   0.0035572895
        0.0148936443  -0.0026935806   0.0192547329   0.0000122923  -0.0856071907
       -0.1038053233  -0.0721856731   0.0931723824  -0.1165603391   0.0573011112
       -0.0044908928  -0.0000213746   0.1978042799   0.1012607991   0.0142592251
       -0.1523138796   0.0019887748   0.0000113836   0.0193061075  -0.0553182268
       -0.0712180522  -0.0426178746  -0.0434404544   0.0569688181  -0.0221786332
       -0.1105238779  -0.0100351257   0.1012607991   0.1938268382   0.0020408185
        0.0044662859  -0.1190421723   0.0059078104  -0.1023904803   0.0178903390
        0.0007936489  -0.0006825701   0.0178488730   0.0012928480  -0.0026540347
       -0.0128874057   0.0035572895   0.0142592251   0.0020408185   0.0559338796
       -0.0295111943   0.0090041249   0.0041881340   0.0100021128  -0.0000127860
       -0.0272167298  -0.0461901967   0.0018552484  -0.0364625733   0.0514400531
        0.1384544887   0.0148936443  -0.1523138796   0.0044662859  -0.0295111943
        0.4275521460  -0.1403301586   0.0092604416  -0.1444879404  -0.0011367398
       -0.0068240994  -0.0699783789  -0.0014538761   0.0121812077  -0.0607719471
       -0.1161031748  -0.0026935806   0.0019887748  -0.1190421723   0.0090041249
       -0.1403301586   0.4604460418   0.0051589414  -0.0045009859  -0.1164186777
        0.1136870825   0.0819778471  -0.1088820171  -0.1251565683   0.0608645227
       -0.0026836258   0.0192547329   0.0000113836   0.0059078104   0.0041881340
        0.0092604416   0.0051589414   0.1978026938  -0.0002095212   0.0827686007
       -0.0961267007  -0.0717383821  -0.0911517267  -0.1251188598   0.0626760781
        0.0019824545   0.0000122923   0.0193061075  -0.1023904803   0.0100021128
       -0.1444879404  -0.0045009859  -0.0002095212   0.1975534235   0.0605342998
       -0.0726164172  -0.0469605616   0.0443747119   0.0628115333  -0.0254110290
       -0.1130580871  -0.0856071907  -0.0553182268   0.0178903390  -0.0000127860
       -0.0011367398  -0.1164186777   0.0827686007   0.0605342998   0.1937220215
        0.0005985978  -0.0038051017   0.0178644043   0.0022527783  -0.0002742314
       -0.1167840375  -0.1038053233  -0.0712180522   0.0007936489  -0.0272167298
       -0.0068240994   0.1136870825  -0.0961267007  -0.0726164172   0.0005985978
        0.3091993555   0.1757693134   0.0017047084  -0.0820506016  -0.0251107447
       -0.0765549016  -0.0721856731  -0.0426178746  -0.0006825701  -0.0461901967
       -0.0699783789   0.0819778471  -0.0717383821  -0.0469605616  -0.0038051017
        0.1757693134   0.1745573803  -0.0009352738   0.0143449385  -0.0150005653
       -0.1207625149   0.0931723824  -0.0434404544   0.0178488730   0.0018552484
       -0.0014538761  -0.1088820171  -0.0911517267   0.0443747119   0.0178644043
        0.0017047084  -0.0009352738   0.1939312547  -0.0055806126   0.0014548923
        0.1271915545  -0.1165603391   0.0569688181   0.0012928480  -0.0364625733
        0.0121812077  -0.1251565683  -0.1251188598   0.0628115333   0.0022527783
       -0.0820506016   0.0143449385  -0.0055806126   0.3601923738  -0.1463064976
       -0.0593911489   0.0573011112  -0.0221786332  -0.0026540347   0.0514400531
       -0.0607719471   0.0608645227   0.0626760781  -0.0254110290  -0.0002742314
       -0.0251107447  -0.0150005653   0.0014548923  -0.1463064976   0.1233621745
