      -----------------------------------------------------------      
     |                   =====================                   |     
     |                           x T B                           |     
     |                   =====================                   |     
     |                         S. Grimme                         |     
     |          Mulliken Center for Theoretical Chemistry        |     
     |                    University of Bonn                     |     
      -----------------------------------------------------------      

   * xtb version 6.2.2 (9d81278992624c895f80dd42a50cac0aa55982e2) compiled by '@Darwin' on 04/03/2020

   xtb is free software: you can redistribute it and/or modify it under
   the terms of the GNU Lesser General Public License as published by
   the Free Software Foundation, either version 3 of the License, or
   (at your option) any later version.
   
   xtb is distributed in the hope that it will be useful,
   but WITHOUT ANY WARRANTY; without even the implied warranty of
   MERCHANTABILITY or FITNESS FOR A PARTICULAR PURPOSE.  See the
   GNU Lesser General Public License for more details.
   
   Cite this work as:
   * S. Grimme, C. Bannwarth, P. Shushkov, J. Chem. Theory Comput., 2017,
     13, 1989-2009. DOI: 10.1021/acs.jctc.7b00118
   * C. Bannwarth, S. Ehlert and S. Grimme., J. Chem. Theory Comput., 2019,
     15, 1652-1671. DOI: 10.1021/acs.jctc.8b01176
   * P. Pracht, E. Caldeweyher, S. Ehlert, S. Grimme, ChemRxiv, 2019, preprint.
     DOI: 10.26434/chemrxiv.8326202.v1
   
   for DFT-D4:
   * E. Caldeweyher, C. Bannwarth and S. Grimme, J. Chem. Phys., 2017,
     147, 034112. DOI: 10.1063/1.4993215
   * E. Caldeweyher, S. Ehlert, A. Hansen, H. Neugebauer, S. Spicher,
     C. Bannwarth and S. Grimme, J. Chem. Phys., 2019, 150, 154122.
     DOI: 10.1063/1.5090222
   
   for sTDA-xTB:
   * S. Grimme and C. Bannwarth, J. Chem. Phys., 2016, 145, 054103.
     DOI: 10.1063/1.4959605
   
   in the mass-spec context:
   * V. Asgeirsson, C. Bauer and S. Grimme, Chem. Sci., 2017, 8, 4879.
     DOI: 10.1039/c7sc00601b
   
   for metadynamics refer to:
   * S. Grimme, J. Chem. Theory Comput., 2019, 155, 2847-2862
     DOI: 10.1021/acs.jctc.9b00143
   
   with help from (in alphabetical order)
   C. Bannwarth, F. Bohle, G. Brandenburg, E. Caldeweyher, M. Checinski,
   S. Dohm, S. Ehlert, S. Ehrlich, F. März, H. Neugebauer, J. Pisarek,
   P. Pracht, P. Shushkov, and S. Spicher.
   
 * started run on 2020/05/12 at 11:44:39.713     

           -------------------------------------------------
          |                Calculation Setup                |
           -------------------------------------------------

          program call               : xtb --input C5_19_S_0.input C5_19_S_0.xyz --ohess --molden --namespace C5_19_S_0 output.out
          calculation namespace      : C5_19_S_0
          coordinate file            : C5_19_S_0.xyz
          number of atoms            :                     5
          number of electrons        :                    20
          charge                     :                     0
          spin                       :                   0.0
          first test random number   :      0.11968793448080

   ID    Z sym.   atoms
    1    6 C      1-5

           -------------------------------------------------
          |                 G F N 2 - x T B                 |
           -------------------------------------------------

        Reference                      10.1021/acs.jctc.8b01176
      * Hamiltonian:
        H0-scaling (s, p, d)           1.850000    2.230000    2.230000
        zeta-weighting                 0.500000
      * Dispersion:
        s8                             2.700000
        a1                             0.520000
        a2                             5.000000
        s9                             5.000000
      * Repulsion:
        kExp                           1.500000    1.000000
        rExp                           1.000000
      * Coulomb:
        alpha                          2.000000
        third order                    shell-resolved
        anisotropic                    true
        a3                             3.000000
        a5                             4.000000
        cn-shift                       1.200000
        cn-exp                         4.000000
        max-rad                        5.000000


          ...................................................
          :                      SETUP                      :
          :.................................................:
          :  # basis functions                  20          :
          :  # atomic orbitals                  20          :
          :  # shells                           10          :
          :  # electrons                        20          :
          :  max. iterations                   250          :
          :  Hamiltonian                  GFN2-xTB          :
          :  restarted?                      false          :
          :  GBSA solvation                  false          :
          :  PC potential                    false          :
          :  electronic temp.          300.0000000     K    :
          :  accuracy                    1.0000000          :
          :  -> integral cutoff          0.2500000E+02      :
          :  -> integral neglect         0.1000000E-07      :
          :  -> SCF convergence          0.1000000E-05 Eh   :
          :  -> wf. convergence          0.1000000E-03 e    :
          :  Broyden damping             0.4000000          :
          ...................................................

 iter      E             dE          RMSdq      gap      omega  full diag
   1    -10.1017533 -0.101018E+02  0.983E+00    0.36       0.0  T
   2     -9.7677998  0.333954E+00  0.956E+00    0.07       1.0  T
   3    -10.1029638 -0.335164E+00  0.663E+00    0.42       1.0  T
   4    -10.1392112 -0.362474E-01  0.574E+00    0.07       1.0  T
   5    -10.1421811 -0.296989E-02  0.568E+00    0.07       1.0  T
   6    -10.1449425 -0.276144E-02  0.560E+00    0.07       1.0  T
   7    -10.1475658 -0.262325E-02  0.554E+00    0.08       1.0  T
   8    -10.0686380  0.789277E-01  0.737E+00    0.52       1.0  T
   9    -10.0899634 -0.213253E-01  0.678E+00    0.42       1.0  T
  10    -10.2659165 -0.175953E+00  0.994E-01    0.02       1.0  T
  11    -10.1313506  0.134566E+00  0.582E+00    0.23       1.0  T
  12    -10.1278890  0.346166E-02  0.594E+00    0.25       1.0  T
  13    -10.2668911 -0.139002E+00  0.944E-01    0.01       1.0  T
  14    -10.2521578  0.147333E-01  0.209E+00    0.04       1.0  T
  15    -10.2677688 -0.156110E-01  0.843E-01    0.01       1.0  T
  16    -10.2693711 -0.160238E-02  0.607E-01    0.01       1.0  T
  17    -10.2649420  0.442914E-02  0.118E+00    0.03       1.0  T
  18    -10.2701539 -0.521188E-02  0.406E-01    0.00       1.0  T
  19    -10.2708391 -0.685251E-03  0.128E-01    0.00       1.0  T
  20    -10.2707998  0.393279E-04  0.161E-01    0.01       1.0  T
  21    -10.2708915 -0.917271E-04  0.646E-02    0.00       1.0  T
  22    -10.2709040 -0.124422E-04  0.376E-02    0.01       1.2  T
  23    -10.2709099 -0.595086E-05  0.524E-03    0.00       8.5  T
  24    -10.2709098  0.134974E-06  0.785E-03    0.00       5.7  T
  25    -10.2709100 -0.211129E-06  0.336E-03    0.00      13.3  T
  26    -10.2709100 -0.348140E-07  0.185E-03    0.00      24.1  T
  27    -10.2709101 -0.143658E-07  0.354E-04    0.00     126.3  T
  28    -10.2709101  0.324698E-09  0.441E-04    0.00     101.4  T

   *** convergence criteria satisfied after 28 iterations ***

         #    Occupation            Energy/Eh            Energy/eV
      -------------------------------------------------------------
         1        2.0000           -0.7584281             -20.6379
       ...           ...                  ...                  ...
         4        2.0000           -0.6124432             -16.6654
         5        2.0000           -0.5065076             -13.7828
         6        2.0000           -0.5065073             -13.7828
         7        2.0000           -0.5035476             -13.7022
         8        1.9256           -0.4418240             -12.0226
         9        1.9256           -0.4418239             -12.0226
        10        1.1199           -0.4389616             -11.9448 (HOMO)
        11        1.0289           -0.4387877             -11.9400 (LUMO)
        12                         -0.2810005              -7.6464
        13                         -0.2810001              -7.6464
        14                         -0.1243921              -3.3849
        15                         -0.0085941              -0.2339
       ...                                ...                  ...
        20                          0.2610213               7.1028
      -------------------------------------------------------------
                  HL-Gap            0.0001739 Eh            0.0047 eV
             Fermi-level           -0.4387327 Eh          -11.9385 eV

 SCC (total)                   0 d,  0 h,  0 min,  0.007 sec
 SCC setup                      ...        0 min,  0.000 sec (  1.264%)
 Dispersion                     ...        0 min,  0.000 sec (  0.288%)
 integral evaluation            ...        0 min,  0.001 sec ( 18.808%)
 zeroth order Hamiltonian       ...        0 min,  0.000 sec (  0.357%)
 iterations                     ...        0 min,  0.004 sec ( 57.372%)
 molecular gradient             ...        0 min,  0.001 sec ( 20.485%)
 printout                       ...        0 min,  0.000 sec (  1.294%)

         :::::::::::::::::::::::::::::::::::::::::::::::::::::
         ::                     SUMMARY                     ::
         :::::::::::::::::::::::::::::::::::::::::::::::::::::
         :: total energy             -10.136490379136 Eh    ::
         :: gradient norm              0.175809756392 Eh/a0 ::
         :: HOMO-LUMO gap              0.004731574445 eV    ::
         ::.................................................::
         :: SCC energy               -10.270910058908 Eh    ::
         :: -> isotropic ES           -0.007387909474 Eh    ::
         :: -> anisotropic ES          0.002084257365 Eh    ::
         :: -> anisotropic XC          0.002158031808 Eh    ::
         :: -> dispersion             -0.002358502298 Eh    ::
         :: repulsion energy           0.134419665328 Eh    ::
         :: add. restraining           0.000000000000 Eh    ::
         :::::::::::::::::::::::::::::::::::::::::::::::::::::

      ----------------------------------------------------------- 
     |                   =====================                   |
     |                        A N C O P T                        |
     |                   =====================                   |
     |               Approximate Normal Coordinate               |
     |                Rational Function Optimizer                |
      ----------------------------------------------------------- 

          ...................................................
          :                      SETUP                      :
          :.................................................:
          :   optimization level            normal          :
          :   max. optcycles                   200          :
          :   ANC micro-cycles                  20          :
          :   degrees of freedom                 9          :
          :.................................................:
          :   RF solver                   davidson          :
          :   write xtbopt.log                true          :
          :   linear?                        false          :
          :   energy convergence         0.5000000E-05 Eh   :
          :   grad. convergence          0.1000000E-02 Eh/α :
          :   maximium RF displ.         1.0000000          :
          :   Hlow (freq-cutoff)         0.1000000E-01      :
          :   Hmax (freq-cutoff)         5.0000000          :
          :   S6 in model hess.         20.0000000          :
          ...................................................

generating ANC from model Hessian ...
Using Lindh-Hessian (1995)
 Shifting diagonal of input Hessian by    0.0000000000000000     
 Lowest  eigenvalues of input Hessian
   -0.000000   -0.000000   -0.000000    0.000000    0.000000    0.000000
    0.388179    0.388181    0.786049    0.911247    0.911249    1.063673
    1.063674    1.465320    1.771368
 Highest eigenvalues
    0.911247    0.911249    1.063673    1.063674    1.465320    1.771368


........................................................................
.............................. CYCLE    1 ..............................
........................................................................
   1    -10.2709101 -0.102709E+02  0.199E-04    0.00       0.0  T
   2    -10.2709100  0.653804E-07  0.377E-03    0.00      11.9  T
   3    -10.2709101 -0.654528E-07  0.149E-04    0.00     300.0  T
   4    -10.2709101 -0.129070E-10  0.139E-04    0.00     321.9  T
     SCC iter.                  ...        0 min,  0.001 sec
     gradient                   ...        0 min,  0.002 sec
 * total energy  :   -10.1364904 Eh     change       -0.6715274E-08 Eh
   gradient norm :     0.1758191 Eh/α   predicted     0.0000000E+00 (-100.00%)
   displ. norm   :     0.1909198 α      lambda       -0.3230891E-01
   maximum displ.:     0.1842119 α      in ANC's #3, #9, #2, ...

........................................................................
.............................. CYCLE    2 ..............................
........................................................................
   1    -10.2428910 -0.102429E+02  0.440E+00    0.36       0.0  T
   2     -9.8753598  0.367531E+00  0.863E+00    0.02       1.0  T
   3    -10.2644246 -0.389065E+00  0.317E+00    0.21       1.0  T
   4    -10.1364502  0.127974E+00  0.626E+00    0.04       1.0  T
   5    -10.2894747 -0.153025E+00  0.176E+00    0.02       1.0  T
   6    -10.2935068 -0.403206E-02  0.144E+00    0.03       1.0  T
   7    -10.2952524 -0.174564E-02  0.127E+00    0.03       1.0  T
   8    -10.3013293 -0.607686E-02  0.353E-01    0.05       1.0  T
   9    -10.3013752 -0.458907E-04  0.319E-01    0.05       1.0  T
  10    -10.3018148 -0.439625E-03  0.120E-01    0.06       1.0  T
  11    -10.3018761 -0.613049E-04  0.301E-02    0.06       1.5  T
  12    -10.3018784 -0.236347E-05  0.181E-02    0.06       2.5  T
  13    -10.3018792 -0.755396E-06  0.154E-02    0.06       2.9  T
  14    -10.3018801 -0.928398E-06  0.507E-03    0.06       8.8  T
  15    -10.3018802 -0.109776E-06  0.100E-03    0.06      44.6  T
  16    -10.3018802 -0.398764E-08  0.374E-04    0.06     119.6  T
  17    -10.3018802 -0.702922E-10  0.346E-04    0.06     129.3  T
     SCC iter.                  ...        0 min,  0.002 sec
     gradient                   ...        0 min,  0.002 sec
 * total energy  :   -10.1672357 Eh     change       -0.3074529E-01 Eh
   gradient norm :     0.1582549 Eh/α   predicted    -0.1674329E-01 ( -45.54%)
   displ. norm   :     0.8162168 α      lambda       -0.1263490E+00
   maximum displ.:     0.7954932 α      in ANC's #3, #9, #6, ...

........................................................................
.............................. CYCLE    3 ..............................
........................................................................
   1    -10.4252905 -0.104253E+02  0.547E+00    2.43       0.0  T
   2    -10.4270327 -0.174223E-02  0.321E+00    2.72       1.0  T
   3    -10.4264640  0.568718E-03  0.538E-01    2.57       1.0  T
   4    -10.4274286 -0.964621E-03  0.107E-01    2.72       1.0  T
   5    -10.4274280  0.581665E-06  0.221E-02    2.71       2.0  T
   6    -10.4274302 -0.223296E-05  0.823E-03    2.72       5.4  T
   7    -10.4274306 -0.310932E-06  0.453E-03    2.72       9.9  T
   8    -10.4274306 -0.320977E-07  0.202E-03    2.72      22.1  T
   9    -10.4274306 -0.295609E-07  0.584E-05    2.72     765.9  T
  10    -10.4274306 -0.894573E-11  0.159E-05    2.72    2814.6  T
     SCC iter.                  ...        0 min,  0.001 sec
     gradient                   ...        0 min,  0.001 sec
 * total energy  :   -10.2408839 Eh     change       -0.7364819E-01 Eh
   gradient norm :     0.1117877 Eh/α   predicted    -0.1052619E+00 (  42.93%)
   displ. norm   :     0.0614845 α      lambda       -0.6795420E-02
   maximum displ.:     0.0552616 α      in ANC's #9, #3, #1, ...

........................................................................
.............................. CYCLE    4 ..............................
........................................................................
   1    -10.4084988 -0.104085E+02  0.311E-01    2.54       0.0  T
   2    -10.4085104 -0.115766E-04  0.188E-01    2.56       1.0  T
   3    -10.4085056  0.478086E-05  0.511E-02    2.54       1.0  T
   4    -10.4085143 -0.867366E-05  0.113E-02    2.56       4.0  T
   5    -10.4085143  0.263134E-07  0.234E-03    2.56      19.1  T
   6    -10.4085143 -0.352543E-07  0.870E-04    2.56      51.4  T
   7    -10.4085143 -0.212675E-08  0.484E-04    2.56      92.3  T
     SCC iter.                  ...        0 min,  0.001 sec
     gradient                   ...        0 min,  0.001 sec
 * total energy  :   -10.2456870 Eh     change       -0.4803168E-02 Eh
   gradient norm :     0.0496388 Eh/α   predicted    -0.3410556E-02 ( -28.99%)
   displ. norm   :     0.0879314 α      lambda       -0.3299767E-02
   maximum displ.:     0.0731795 α      in ANC's #9, #3, #8, ...

........................................................................
.............................. CYCLE    5 ..............................
........................................................................
   1    -10.3934386 -0.103934E+02  0.632E-01    2.68       0.0  T
   2    -10.3937539 -0.315374E-03  0.389E-01    2.80       1.0  T
   3    -10.3938024 -0.484262E-04  0.206E-01    2.74       1.0  T
   4    -10.3938453 -0.429008E-04  0.197E-02    2.77       2.3  T
   5    -10.3938402  0.511523E-05  0.279E-02    2.77       1.6  T
   6    -10.3938456 -0.541889E-05  0.178E-03    2.77      25.2  T
   7    -10.3938456  0.720940E-08  0.179E-03    2.77      25.0  T
   8    -10.3938456 -0.238142E-07  0.353E-04    2.77     126.8  T
   9    -10.3938456 -0.848903E-10  0.305E-05    2.77    1465.4  T
     SCC iter.                  ...        0 min,  0.001 sec
     gradient                   ...        0 min,  0.001 sec
 * total energy  :   -10.2474927 Eh     change       -0.1805700E-02 Eh
   gradient norm :     0.0053456 Eh/α   predicted    -0.1662643E-02 (  -7.92%)
   displ. norm   :     0.0084745 α      lambda       -0.3663497E-04
   maximum displ.:     0.0077732 α      in ANC's #9, #3, #8, ...

........................................................................
.............................. CYCLE    6 ..............................
........................................................................
   1    -10.3919759 -0.103920E+02  0.554E-02    2.78       0.0  T
   2    -10.3919784 -0.255083E-05  0.345E-02    2.79       1.3  T
   3    -10.3919789 -0.461968E-06  0.187E-02    2.78       2.4  T
   4    -10.3919792 -0.327411E-06  0.183E-03    2.78      24.5  T
   5    -10.3919792  0.351339E-07  0.226E-03    2.78      19.8  T
   6    -10.3919792 -0.368514E-07  0.923E-05    2.78     484.7  T
   7    -10.3919792  0.833111E-11  0.682E-05    2.78     655.3  T
     SCC iter.                  ...        0 min,  0.001 sec
     gradient                   ...        0 min,  0.001 sec
 * total energy  :   -10.2475113 Eh     change       -0.1854027E-04 Eh
   gradient norm :     0.0002335 Eh/α   predicted    -0.1831793E-04 (  -1.20%)
   displ. norm   :     0.0008644 α      lambda       -0.1071310E-06
   maximum displ.:     0.0008638 α      in ANC's #3, #9, #8, ...

........................................................................
.............................. CYCLE    7 ..............................
........................................................................
   1    -10.3918804 -0.103919E+02  0.700E-03    2.78       0.0  T
   2    -10.3918805 -0.208778E-07  0.418E-03    2.78      10.7  T
   3    -10.3918804  0.177413E-08  0.197E-03    2.78      22.7  T
   4    -10.3918805 -0.586104E-08  0.561E-04    2.78      79.7  T
   5    -10.3918805 -0.234758E-08  0.122E-04    2.78     367.4  T
     SCC iter.                  ...        0 min,  0.000 sec
     gradient                   ...        0 min,  0.001 sec
 * total energy  :   -10.2475113 Eh     change       -0.4349943E-07 Eh
   gradient norm :     0.0001050 Eh/α   predicted    -0.5240879E-07 (  20.48%)
   displ. norm   :     0.0002664 α      lambda       -0.1651502E-07
   maximum displ.:     0.0002663 α      in ANC's #3, #9, #1, ...

   *** GEOMETRY OPTIMIZATION CONVERGED AFTER 7 ITERATIONS ***

------------------------------------------------------------------------
 total energy gain   :        -0.1110209 Eh      -69.6667 kcal/mol
 total RMSD          :         0.4783893 a0        0.2532 Å
 total power (kW/mol):       -41.6407754 (step)********** (real)
------------------------------------------------------------------------

 ANCopt (total)                0 d,  0 h,  0 min,  0.028 sec
 optimizer setup                ...        0 min,  0.000 sec (  0.298%)
 model hessian                  ...        0 min,  0.000 sec (  0.467%)
 ANC generation                 ...        0 min,  0.000 sec (  0.277%)
 coordinate transformation      ...        0 min,  0.000 sec (  0.062%)
 single point calculation       ...        0 min,  0.027 sec ( 96.877%)
 optimization log               ...        0 min,  0.000 sec (  0.542%)
 hessian update                 ...        0 min,  0.000 sec (  0.061%)
 rational function              ...        0 min,  0.000 sec (  0.583%)

================
 final structure:
================
5
 xtb: 6.2.2 (9d81278992624c895f80dd42a50cac0aa55982e2)
C         0.94277032562820    0.01848844912039   -0.01526351723379
C         0.01937920558527   -0.08603546669610    1.09277972693369
C        -0.94277083343170   -0.01848981392237    0.01526223893458
C         0.00765910800332   -0.90332274757809   -0.62120468929212
C        -0.02703680578509    0.98935957907617   -0.47157375934236

 Bond Distances (Angstroems)
 ---------------------------
C1-C2=1.4461         C1-C3=1.8862         C1-C4=1.4461         C1-C5=1.4461         C2-C1=1.4461         C2-C3=1.4461         
C2-C4=1.8989         C2-C5=1.8989         C3-C1=1.8862         C3-C2=1.4461         C3-C4=1.4461         C3-C5=1.4461         
C4-C1=1.4461         C4-C2=1.8989         C4-C3=1.4461         C4-C5=1.8989         C5-C1=1.4461         C5-C2=1.8989         
C5-C3=1.4461         C5-C4=1.8989         
 C  C  Rav=1.6260 sigma=0.2203  Rmin=1.4461  Rmax=1.8989    10

 selected bond angles (degree)
 --------------------
C3-C1-C2= 49.30                C4-C1-C2= 82.07                C4-C1-C3= 49.30                C5-C1-C2= 82.07                
C5-C1-C3= 49.30                C5-C1-C4= 82.07                C3-C2-C1= 81.40                C4-C2-C1= 48.96                
C4-C2-C3= 48.96                C5-C2-C1= 48.96                C5-C2-C3= 48.96                C5-C2-C4= 60.00                
C2-C3-C1= 49.30                C4-C3-C1= 49.30                C4-C3-C2= 82.07                C5-C3-C1= 49.30                
C5-C3-C2= 82.07                C5-C3-C4= 82.07                C2-C4-C1= 48.96                C3-C4-C1= 81.40                
C3-C4-C2= 48.96                C5-C4-C1= 48.96                C5-C4-C2= 60.00                C5-C4-C3= 48.96                
C2-C5-C1= 48.96                C3-C5-C1= 81.40                C3-C5-C2= 48.96                C4-C5-C1= 48.96                
C4-C5-C2= 60.00                C4-C5-C3= 48.96                

 selected dihedral angles (degree)
 ---------------------------------
C3-C2-C1-C4=318.48            C3-C2-C1-C5= 41.52            C4-C2-C1-C3= 41.52            C4-C2-C1-C5= 83.04            
C5-C2-C1-C3=318.48            C5-C2-C1-C4=276.96            C1-C3-C2-C4=318.48            C1-C3-C2-C5= 41.52            
C4-C3-C2-C1= 41.52            C4-C3-C2-C5= 83.04            C5-C3-C2-C1=318.48            C5-C3-C2-C4=276.96            
C2-C4-C1-C3=318.48            C2-C4-C1-C5=276.96            C3-C4-C1-C2= 41.52            C3-C4-C1-C5=318.48            
C5-C4-C1-C2= 83.04            C5-C4-C1-C3= 41.52            C1-C4-C3-C2=318.48            C1-C4-C3-C5= 41.52            
C2-C4-C3-C1= 41.52            C2-C4-C3-C5= 83.04            C5-C4-C3-C1=318.48            C5-C4-C3-C2=276.96            
C2-C5-C1-C3= 41.52            C2-C5-C1-C4= 83.04            C3-C5-C1-C2=318.48            C3-C5-C1-C4= 41.52            
C4-C5-C1-C2=276.96            C4-C5-C1-C3=318.48            C1-C5-C3-C2= 41.52            C1-C5-C3-C4=318.48            
C2-C5-C3-C1=318.48            C2-C5-C3-C4=276.96            C4-C5-C3-C1= 41.52            C4-C5-C3-C2= 83.04            
           -------------------------------------------------
          |                Final Singlepoint                |
           -------------------------------------------------

          ...................................................
          :                      SETUP                      :
          :.................................................:
          :  # basis functions                  20          :
          :  # atomic orbitals                  20          :
          :  # shells                           10          :
          :  # electrons                        20          :
          :  max. iterations                   250          :
          :  Hamiltonian                  GFN2-xTB          :
          :  restarted?                      false          :
          :  GBSA solvation                  false          :
          :  PC potential                    false          :
          :  electronic temp.          300.0000000     K    :
          :  accuracy                    1.0000000          :
          :  -> integral cutoff          0.2500000E+02      :
          :  -> integral neglect         0.1000000E-07      :
          :  -> SCF convergence          0.1000000E-05 Eh   :
          :  -> wf. convergence          0.1000000E-03 e    :
          :  Broyden damping             0.4000000          :
          ...................................................

 iter      E             dE          RMSdq      gap      omega  full diag
   1    -10.3918805 -0.103919E+02  0.152E-04    2.78       0.0  T
   2    -10.3918805  0.587258E-09  0.312E-04    2.78     143.2  T
   3    -10.3918805 -0.746617E-09  0.241E-05    2.78    1855.0  T

   *** convergence criteria satisfied after 3 iterations ***

         #    Occupation            Energy/Eh            Energy/eV
      -------------------------------------------------------------
         1        2.0000           -0.7769117             -21.1408
       ...           ...                  ...                  ...
         4        2.0000           -0.6479921             -17.6328
         5        2.0000           -0.5376371             -14.6298
         6        2.0000           -0.5376367             -14.6298
         7        2.0000           -0.4991487             -13.5825
         8        2.0000           -0.4781579             -13.0113
         9        2.0000           -0.4751098             -12.9284
        10        2.0000           -0.4751097             -12.9284 (HOMO)
        11                         -0.3729585             -10.1487 (LUMO)
        12                         -0.3267438              -8.8912
        13                         -0.3267430              -8.8911
        14                         -0.2969948              -8.0816
        15                          0.0152643               0.4154
       ...                                ...                  ...
        20                          0.5507308              14.9861
      -------------------------------------------------------------
                  HL-Gap            0.1021512 Eh            2.7797 eV
             Fermi-level           -0.4240341 Eh          -11.5386 eV

 SCC (total)                   0 d,  0 h,  0 min,  0.003 sec
 SCC setup                      ...        0 min,  0.000 sec (  1.292%)
 Dispersion                     ...        0 min,  0.000 sec (  0.265%)
 integral evaluation            ...        0 min,  0.001 sec ( 39.144%)
 zeroth order Hamiltonian       ...        0 min,  0.000 sec (  0.412%)
 iterations                     ...        0 min,  0.000 sec ( 11.833%)
 molecular gradient             ...        0 min,  0.002 sec ( 45.309%)
 printout                       ...        0 min,  0.000 sec (  1.501%)

         :::::::::::::::::::::::::::::::::::::::::::::::::::::
         ::                     SUMMARY                     ::
         :::::::::::::::::::::::::::::::::::::::::::::::::::::
         :: total energy             -10.247511315267 Eh    ::
         :: gradient norm              0.000104797186 Eh/a0 ::
         :: HOMO-LUMO gap              2.779675110014 eV    ::
         ::.................................................::
         :: SCC energy               -10.391880457006 Eh    ::
         :: -> isotropic ES           -0.014926554304 Eh    ::
         :: -> anisotropic ES          0.002533940630 Eh    ::
         :: -> anisotropic XC          0.004148876832 Eh    ::
         :: -> dispersion             -0.002395539808 Eh    ::
         :: repulsion energy           0.144369124437 Eh    ::
         :: add. restraining           0.000000000000 Eh    ::
         :::::::::::::::::::::::::::::::::::::::::::::::::::::

           ------------------------------------------------- 
          |                Numerical Hessian                |
           ------------------------------------------------- 
step length          :   0.00500
SCC accuracy         :   0.30000
Hessian scale factor :   1.00000
frozen atoms in %    :   0.00000    0
RMS gradient         :   0.00010
estimated CPU  time      0.00 min
estimated wall time      0.00 min

writing file <hessian>.

 projected vibrational frequencies (cm-1)
eigval :       -0.00    -0.00    -0.00     0.00     0.00     0.00
eigval :      465.26   465.65   664.16   882.70   882.70  1123.82
eigval :     1136.75  1137.18  1398.49
           -------------------------------------------------
          |                Property Printout                |
           -------------------------------------------------

    * Orbital Energies and Occupations

         #    Occupation            Energy/Eh            Energy/eV
      -------------------------------------------------------------
         1        2.0000           -0.7769116             -21.1408
         2        2.0000           -0.6564085             -17.8618
         3        2.0000           -0.6564081             -17.8618
         4        2.0000           -0.6479921             -17.6328
         5        2.0000           -0.5376372             -14.6299
         6        2.0000           -0.5376366             -14.6298
         7        2.0000           -0.4991486             -13.5825
         8        2.0000           -0.4781579             -13.0113
         9        2.0000           -0.4751098             -12.9284
        10        2.0000           -0.4751097             -12.9284 (HOMO)
        11                         -0.3729585             -10.1487 (LUMO)
        12                         -0.3267438              -8.8912
        13                         -0.3267430              -8.8911
        14                         -0.2969948              -8.0816
        15                          0.0152645               0.4154
        16                          0.0152659               0.4154
        17                          0.1092511               2.9729
        18                          0.1092516               2.9729
        19                          0.1405019               3.8233
        20                          0.5507308              14.9861
      -------------------------------------------------------------
                  HL-Gap            0.1021512 Eh            2.7797 eV
             Fermi-level           -0.4240341 Eh          -11.5386 eV

     #   Z        covCN         q      C6AA      α(0)
     1   6 C      3.651     0.080    19.541     6.349
     2   6 C      3.340    -0.054    26.660     8.167
     3   6 C      3.651     0.080    19.541     6.349
     4   6 C      3.340    -0.054    26.660     8.167
     5   6 C      3.340    -0.054    26.660     8.167

 Mol. C6AA /au·bohr⁶  :        591.347499
 Mol. C8AA /au·bohr⁸  :      17102.797287
 Mol. α(0) /au        :         37.198549


Wiberg/Mayer (AO) data.
largest (>0.10) Wiberg bond orders for each atom
          total WBO             WBO to atom ...
Molecule has the following symmetry elements: (C3) 3*(C2) (S3) 4*(sigma) 
It seems to be the D3h point group
     1  C   3.575        C    4 0.980    C    5 0.980    C    2 0.980    C    3 0.634
     2  C   3.065        C    1 0.980    C    3 0.980    C    4 0.552    C    5 0.552
     3  C   3.575        C    4 0.980    C    5 0.980    C    2 0.980    C    1 0.634
     4  C   3.065        C    1 0.980    C    3 0.980    C    5 0.552    C    2 0.552
     5  C   3.065        C    1 0.980    C    3 0.980    C    4 0.552    C    2 0.552

MOs/occ written to file <molden.input>


molecular dipole:
                 x           y           z       tot (Debye)
 q only:        0.000      -0.000      -0.000
   full:        0.000      -0.000      -0.000       0.000
molecular quadrupole (traceless):
                xx          xy          yy          xz          yz          zz
 q only:        0.856       0.025      -0.428      -0.021      -0.000      -0.428
  q+dip:        2.473       0.073      -1.236      -0.060      -0.001      -1.237
   full:        2.041       0.060      -1.021      -0.050      -0.001      -1.021

           -------------------------------------------------
          |                Geometry Summary                 |
           -------------------------------------------------

      molecular mass/u    :       60.0536795
   center of mass at/Å    :        0.0000002      -0.0000000      -0.0000000
  moments of inertia/u·Å² :        0.4301883E+02   0.4301889E+02   0.4330875E+02
rotational constants/cm⁻¹ :        0.3918664E+00   0.3918658E+00   0.3892431E+00

 * 6 selected distances

     #   Z        #   Z                                     value/Å
     1   6 C      2   6 C                                 1.4461453
     2   6 C      3   6 C                                 1.4461463 (max)
     1   6 C      4   6 C                                 1.4461444 (min)
     3   6 C      4   6 C                                 1.4461454
     1   6 C      5   6 C                                 1.4461451
     3   6 C      5   6 C                                 1.4461461

 * 1 distinct bonds (by element types)

   Z      Z             #   av. dist./Å        max./Å        min./Å
   6 C    6 C           6     1.4461454     1.4461463     1.4461444

           -------------------------------------------------
          |               Frequency Printout                |
           -------------------------------------------------
 projected vibrational frequencies (cm-1)
eigval :       -0.00    -0.00    -0.00     0.00     0.00     0.00
eigval :      465.26   465.65   664.16   882.70   882.70  1123.82
eigval :     1136.75  1137.18  1398.49
 reduced masses (amu)
   1: 12.01   2: 12.01   3: 12.01   4: 12.01   5: 12.01   6: 12.01   7: 12.01   8: 12.01
   9: 12.01  10: 12.01  11: 12.01  12: 12.01  13: 12.01  14: 12.01  15: 12.01
 IR intensities (amu)
   1:  0.03   2:  0.09   3:  0.02   4:  0.03   5:  0.07   6:  0.06   7:  0.53   8:  0.52
   9:  0.03  10:  0.03  11:  0.03  12:  1.58  13:  0.97  14:  0.96  15:  0.02
 Raman intensities (amu)
   1:  0.00   2:  0.00   3:  0.00   4:  0.00   5:  0.00   6:  0.00   7:  0.00   8:  0.00
   9:  0.00  10:  0.00  11:  0.00  12:  0.00  13:  0.00  14:  0.00  15:  0.00
 output can be read by thermo (or use thermo option).
 writing <g98.out> molden fake output.
 recommended (thermochemical) frequency scaling factor: 1.0
           -------------------------------------------------
          |             Thermodynamic Functions             |
           -------------------------------------------------

d3h symmetry found (for desy threshold:  0.10E+00) used in thermo

          ...................................................
          :                      SETUP                      :
          :.................................................:
          :  # frequencies                           9      :
          :  # imaginary freq.                       0      :
          :  linear?                             false      :
          :  only rotor calc.                    false      :
          :  symmetry                              d3h      :
          :  rotational number                       6      :
          :  scaling factor                  1.0000000      :
          :  rotor cutoff                   50.0000000 cm⁻¹ :
          :  imag. cutoff                  -20.0000000 cm⁻¹ :
          :.................................................:

    mode    ω/cm⁻¹     T·S(HO)/kcal·mol⁻¹    T·S(FR)/kcal·mol⁻¹   T·S(vib)
   ------------------------------------------------------------------------
   ------------------------------------------------------------------------

   temp. (K)  partition function   enthalpy   heat capacity  entropy
                                   cal/mol     cal/K/mol   cal/K/mol   J/K/mol
 298.15  VIB   1.36                  513.535      5.467      2.334
         ROT  0.360E+04              888.752      2.981     19.256
         INT  0.490E+04             1402.287      8.448     21.590
         TR   0.450E+27             1481.254      4.968     38.181
         TOT                        2883.5409    13.4164    59.7706   250.0802

   temp. (K)  partition function   enthalpy   heat capacity  entropy
                                   cal/mol     cal/K/mol   cal/K/mol   J/K/mol
 120.00  VIB   1.01                   10.874      0.527      0.107
         ROT   920.                  357.707      2.981     16.543
         INT   928.                  368.581      3.508     16.650
         TR   0.115E+27              596.178      4.968     33.661
         TOT                         964.7588     8.4758    50.3113   210.5026

   temp. (K)  partition function   enthalpy   heat capacity  entropy
                                   cal/mol     cal/K/mol   cal/K/mol   J/K/mol
 100.00  VIB   1.00                    3.441      0.236      0.040
         ROT   700.                  298.089      2.981     16.000
         INT   702.                  301.530      3.216     16.040
         TR   0.875E+26              496.815      4.968     32.756
         TOT                         798.3455     8.1846    48.7955   204.1603

   temp. (K)  partition function   enthalpy   heat capacity  entropy
                                   cal/mol     cal/K/mol   cal/K/mol   J/K/mol
  80.00  VIB   1.00                    0.629      0.066      0.009
         ROT   501.                  238.471      2.981     15.335
         INT   501.                  239.100      3.047     15.344
         TR   0.626E+26              397.452      4.968     31.648
         TOT                         636.5525     8.0155    46.9915   196.6125

   temp. (K)  partition function   enthalpy   heat capacity  entropy
                                   cal/mol     cal/K/mol   cal/K/mol   J/K/mol
  60.00  VIB   1.00                    0.038      0.007      0.001
         ROT   325.                  178.853      2.981     14.477
         INT   325.                  178.891      2.988     14.478
         TR   0.406E+26              298.089      4.968     30.219
         TOT                         476.9805     7.9561    44.6972   187.0131

   temp. (K)  partition function   enthalpy   heat capacity  entropy
                                   cal/mol     cal/K/mol   cal/K/mol   J/K/mol
  40.00  VIB   1.00                    0.000      0.000     -0.000
         ROT   177.                  119.236      2.981     13.269
         INT   177.                  119.236      2.981     13.268
         TR   0.221E+26              198.726      4.968     28.206
         TOT                         317.9617     7.9491    41.4743   173.5285

   temp. (K)  partition function   enthalpy   heat capacity  entropy
                                   cal/mol     cal/K/mol   cal/K/mol   J/K/mol
  20.00  VIB   1.00                    0.000      0.000     -0.000
         ROT   62.6                   59.618      2.981     11.202
         INT   62.6                   59.618      2.981     11.202
         TR   0.782E+25               99.363      4.968     24.764
         TOT                         158.9808     7.9490    35.9659   150.4814

   temp. (K)  partition function   enthalpy   heat capacity  entropy
                                   cal/mol     cal/K/mol   cal/K/mol   J/K/mol
  10.00  VIB   1.00                    0.000      0.000     -0.001
         ROT   22.1                   29.809      2.981      9.136
         INT   22.1                   29.809      2.981      9.136
         TR   0.277E+25               49.681      4.968     21.322
         TOT                          79.4904     7.9490    30.4575   127.4342

       T/K    H(0)-H(T)+PV         H(T)/Eh          T*S/Eh         G(T)/Eh
   ------------------------------------------------------------------------
    298.15    0.459521E-02    0.231776E-01    0.283989E-01   -0.522137E-02
    120.00    0.153744E-02    0.201198E-01    0.962115E-02    0.104986E-01
    100.00    0.127224E-02    0.198546E-01    0.777606E-02    0.120785E-01
     80.00    0.101441E-02    0.195968E-01    0.599086E-02    0.136059E-01
     60.00    0.760117E-03    0.193425E-01    0.427377E-02    0.150687E-01
     40.00    0.506704E-03    0.190891E-01    0.264374E-02    0.164453E-01
     20.00    0.253352E-03    0.188357E-01    0.114631E-02    0.176894E-01
     10.00    0.126676E-03    0.187090E-01    0.485371E-03    0.182237E-01 (used)
   ------------------------------------------------------------------------

         :::::::::::::::::::::::::::::::::::::::::::::::::::::
         ::                  THERMODYNAMIC                  ::
         :::::::::::::::::::::::::::::::::::::::::::::::::::::
         :: total free energy         -10.229287655983 Eh   ::
         ::.................................................::
         :: total energy              -10.247511315205 Eh   ::
         :: zero point energy           0.018582354482 Eh   ::
         :: G(RRHO) w/o ZPVE           -0.000358695259 Eh   ::
         :: G(RRHO) contrib.            0.018223659223 Eh   ::
         :::::::::::::::::::::::::::::::::::::::::::::::::::::

optimized geometry written to: xtbopt.xyz


           -------------------------------------------------
          | TOTAL ENERGY              -10.247511315205 Eh   |
          | TOTAL ENTHALPY            -10.228802284708 Eh   |
          | TOTAL FREE ENERGY         -10.229287655983 Eh   |
          | GRADIENT NORM               0.000104789395 Eh/α |
          | HOMO-LUMO GAP               2.779676212861 eV   |
           -------------------------------------------------

------------------------------------------------------------------------
 * finished run on 2020/05/12 at 11:44:39.879     
------------------------------------------------------------------------
 total:
 * wall-time:     0 d,  0 h,  0 min,  0.165 sec
 *  cpu-time:     0 d,  0 h,  0 min,  0.164 sec
 * ratio c/w:     0.996 speedup
 SCF:
 * wall-time:     0 d,  0 h,  0 min,  0.007 sec
 *  cpu-time:     0 d,  0 h,  0 min,  0.007 sec
 * ratio c/w:     1.000 speedup
 ANC optimizer:
 * wall-time:     0 d,  0 h,  0 min,  0.033 sec
 *  cpu-time:     0 d,  0 h,  0 min,  0.032 sec
 * ratio c/w:     0.984 speedup
 numerical hessian:
 * wall-time:     0 d,  0 h,  0 min,  0.108 sec
 *  cpu-time:     0 d,  0 h,  0 min,  0.108 sec
 * ratio c/w:     0.999 speedup

