[Molden Format]
[Title]
[Atoms] AU
C      1     6  0.17815776307826E+01  0.34928723404790E-01 -0.28850144451340E-01
C      2     6  0.36627744804441E-01 -0.16258004156041E+00  0.20650543627657E+01
C      3     6 -0.17815785904140E+01 -0.34931302505694E-01  0.28847728823999E-01
C      4     6  0.14460579433659E-01 -0.17070345612786E+01 -0.11739036923603E+01
C      5     6 -0.51085474880760E-01  0.18696171819300E+01 -0.89114825478466E+00
[GTO]
           1 0
 s           4   1.0000000000000000     
   51.049363095579913      -0.16312063210127389     
   8.7911227406887544      -0.19911024581000730     
  0.70640422258929825       0.31882047753655751     
  0.26922813413411617       0.12706504184240380     
 p           4   1.0000000000000000     
   5.8263656140800002       0.73716451545209605     
   1.5106896018720002       0.68216371614850257     
  0.53256483288000001       0.35783053929253711     
  0.21202323690600003        5.3983030275847881E-002

           2 0
 s           4   1.0000000000000000     
   51.049363095579913      -0.16312063210127389     
   8.7911227406887544      -0.19911024581000730     
  0.70640422258929825       0.31882047753655751     
  0.26922813413411617       0.12706504184240380     
 p           4   1.0000000000000000     
   5.8263656140800002       0.73716451545209605     
   1.5106896018720002       0.68216371614850257     
  0.53256483288000001       0.35783053929253711     
  0.21202323690600003        5.3983030275847881E-002

           3 0
 s           4   1.0000000000000000     
   51.049363095579913      -0.16312063210127389     
   8.7911227406887544      -0.19911024581000730     
  0.70640422258929825       0.31882047753655751     
  0.26922813413411617       0.12706504184240380     
 p           4   1.0000000000000000     
   5.8263656140800002       0.73716451545209605     
   1.5106896018720002       0.68216371614850257     
  0.53256483288000001       0.35783053929253711     
  0.21202323690600003        5.3983030275847881E-002

           4 0
 s           4   1.0000000000000000     
   51.049363095579913      -0.16312063210127389     
   8.7911227406887544      -0.19911024581000730     
  0.70640422258929825       0.31882047753655751     
  0.26922813413411617       0.12706504184240380     
 p           4   1.0000000000000000     
   5.8263656140800002       0.73716451545209605     
   1.5106896018720002       0.68216371614850257     
  0.53256483288000001       0.35783053929253711     
  0.21202323690600003        5.3983030275847881E-002

           5 0
 s           4   1.0000000000000000     
   51.049363095579913      -0.16312063210127389     
   8.7911227406887544      -0.19911024581000730     
  0.70640422258929825       0.31882047753655751     
  0.26922813413411617       0.12706504184240380     
 p           4   1.0000000000000000     
   5.8263656140800002       0.73716451545209605     
   1.5106896018720002       0.68216371614850257     
  0.53256483288000001       0.35783053929253711     
  0.21202323690600003        5.3983030275847881E-002

[MO]
Sym=     1a
Ene=  -0.77691163451919198     
Spin= Alpha
Occup=     2.00000000
           1 -0.27616151843751424     
           2  0.14873305693717628     
           3   2.9161923808646430E-003
           4  -2.4083012973215674E-003
           5 -0.24919309255492170     
           6   2.1993089091683787E-003
           7  -9.7623414582208561E-003
           8  0.12400033435891591     
           9 -0.27616116187075374     
          10 -0.14873296840521283     
          11  -2.9160061916150186E-003
          12   2.4085295658474726E-003
          13 -0.24919436675766130     
          14   8.6823681766466827E-004
          15 -0.10250281405662705     
          16  -7.0489698402246254E-002
          17 -0.24919339331582824     
          18  -3.0676081641422132E-003
          19  0.11226509093851303     
          20  -5.3510724558409370E-002
Sym=     2a
Ene=  -0.65640845826516470     
Spin= Alpha
Occup=     2.00000000
           1   1.4909286104749334E-007
           2   2.8372979191819670E-003
           3 -0.27432465474960244     
           4 -0.15693071251942850     
           5 -0.22090667605048725     
           6   3.4325719743896295E-003
           7 -0.18362634753610188     
           8  -1.0357071107535030E-002
           9  -3.6890238819320203E-007
          10   2.8373030005684548E-003
          11 -0.27432393929909960     
          12 -0.15693030458014753     
          13  0.51599372583505376     
          14   3.4391685069599622E-004
          15  -1.5450594685033580E-003
          16   1.9344323284431326E-002
          17 -0.29508750973537773     
          18  -1.1687258334673791E-003
          19  -6.6913774201962165E-002
          20 -0.15319564202581998     
Sym=     3a
Ene=  -0.65640813777011309     
Spin= Alpha
Occup=     2.00000000
           1   2.4085526653423410E-008
           2   7.5164949358260177E-003
           3 -0.15683421423536945     
           4  0.27429186373271758     
           5  0.46827710441582671     
           6   1.4294631579638065E-003
           7  -8.5781620082998444E-002
           8  -1.5597739164515423E-002
           9   1.0399692331518231E-007
          10   7.5165013594483765E-003
          11 -0.15683380626408902     
          12  0.27429115243904068     
          13  -4.2828165062182684E-002
          14   4.9589078729735418E-003
          15 -0.11542445416018660     
          16  0.16648715541437320     
          17 -0.42544882083500135     
          18   5.1876813385878578E-004
          19   5.7085124147433768E-002
          20  0.10116783300533423     
Sym=     4a
Ene=  -0.64799213334697869     
Spin= Alpha
Occup=     2.00000000
           1  0.48045320683171266     
           2   5.4222584469415844E-002
           3   1.0629913917310067E-003
           4  -8.7820953616307045E-004
           5   1.7764739484113874E-007
           6  0.26606909130013945     
           7   5.2166934434950026E-003
           8  -4.3084629255388893E-003
           9 -0.48045353376626732     
          10   5.4221920525974895E-002
          11   1.0635044800601211E-003
          12  -8.7758027642696930E-004
          13  -2.6880448912028715E-007
          14  0.26607111902914254     
          15   5.2166606606406478E-003
          16  -4.3084474178396084E-003
          17   1.4423220799216900E-007
          18  0.26606956675333437     
          19   5.2166229031062857E-003
          20  -4.3083429083147929E-003
Sym=     5a
Ene=  -0.53763719294603607     
Spin= Alpha
Occup=     2.00000000
           1   9.2730253692474916E-007
           2  -4.0468122643585007E-003
           3  0.38428512847097951     
           4  0.21535000306939237     
           5  -2.6216211926796663E-007
           6  0.20197332864037029     
           7   3.9598053148372642E-003
           8  -3.2706775193150658E-003
           9  -7.2270120312864895E-007
          10   4.0475476146632165E-003
          11 -0.38428577469333874     
          12 -0.21535038911175672     
          13   3.6677494710776852E-007
          14 -0.48042484052987872     
          15  -9.4194337045105485E-003
          16   7.7794006959688898E-003
          17  -3.5068935611429462E-007
          18  0.27845253577434775     
          19   5.4591832979641102E-003
          20  -4.5090021603386102E-003
Sym=     6a
Ene=  -0.53763658593184283     
Spin= Alpha
Occup=     2.00000000
           1  -3.0969930019816619E-007
           2  -1.0441667469458604E-002
           3  0.21521528521725428     
           4 -0.38424093763148170     
           5   5.1660759442261796E-007
           6 -0.43813781384113243     
           7  -8.5902360077736040E-003
           8   7.0949969917027417E-003
           9   3.0072458011068132E-007
          10   1.0441424548343469E-002
          11 -0.21521563369710436     
          12  0.38424156224548239     
          13  -3.4200356841945008E-008
          14   4.4155138118284656E-002
          15   8.6570657172869926E-004
          16  -7.1496549538304537E-004
          17  -4.5924856301123564E-007
          18  0.39398237298340560     
          19   7.7242916995593379E-003
          20  -6.3796096305524666E-003
Sym=     7a
Ene=  -0.49914864188439756     
Spin= Alpha
Occup=     2.00000000
           1 -0.42277705695440276     
           2 -0.32962724565505686     
           3  -6.4618682322762945E-003
           4   5.3385021692652019E-003
           5  0.31907454037661220     
           6   4.1103221010636440E-003
           7  -1.8242709208510195E-002
           8  0.23175519251575857     
           9 -0.42277793305516498     
          10  0.32962765418609402     
          11   6.4634771458448514E-003
          12  -5.3368474180462977E-003
          13  0.31908097848961742     
          14   1.6225019556770715E-003
          15 -0.19158170579540695     
          16 -0.13174709787877195     
          17  0.31907577588825753     
          18  -5.7334229760176306E-003
          19  0.20982460792345059     
          20 -0.10000796455222345     
Sym=     8a
Ene=  -0.47815787403230459     
Spin= Alpha
Occup=     2.00000000
           1 -0.27792245733678184     
           2 -0.37868619381501301     
           3  -7.4311913549654053E-003
           4   6.1252917030855522E-003
           5 -0.29195767680698037     
           6  -5.3621557605023707E-003
           7   2.3775651470765539E-002
           8 -0.30234342497716765     
           9 -0.27792343493871424     
          10  0.37868648788859199     
          11   7.4180693401138852E-003
          12  -6.1387351035049418E-003
          13 -0.29201500629548349     
          14  -2.1177680208909347E-003
          15  0.24997578345194335     
          16  0.17189633376190722     
          17 -0.29196930835649487     
          18   7.4793783209838854E-003
          19 -0.27375315382571247     
          20  0.13044548112556675     
Sym=     9a
Ene=  -0.47510975313367027     
Spin= Alpha
Occup=     2.00000000
           1   6.1669719660047787E-006
           2  -2.7304457482702003E-003
           3   5.1257885139528295E-002
           4 -0.10711975368888070     
           5  0.42115072545181143     
           6   4.2481108057716328E-003
           7  0.13588074753602788     
           8  0.42685346099159810     
           9   6.1685540578010012E-006
          10  -2.7486660170435869E-003
          11   5.1257722726034169E-002
          12 -0.10711978138173053     
          13  -7.0064437256187939E-002
          14  -1.1833708932441562E-002
          15  0.31987987258450840     
          16 -0.34348692009279180     
          17 -0.35105981806128106     
          18   6.7025442523186022E-003
          19 -0.43923828268245640     
          20 -0.11789496608040760     
Sym=    10a
Ene=  -0.47510973910035287     
Spin= Alpha
Occup=     2.00000000
           1   1.6887719290027967E-005
           2   1.2946650120979389E-003
           3 -0.10712927200861098     
           4  -5.1295447408744241E-002
           5  0.16225615724090950     
           6   1.0839060994189992E-002
           7 -0.44979754763061575     
           8  0.12475798819510144     
           9   1.6897306993105989E-005
          10   1.2448870516904983E-003
          11 -0.10713038771324344     
          12  -5.1294667935455403E-002
          13 -0.44580989865857662     
          14  -1.2810509690938090E-003
          15  0.32052144594006299     
          16  0.30897965270080002     
          17  0.28362649202269402     
          18  -9.1487297874101089E-003
          19   9.4747659002421228E-002
          20 -0.45027011816588786     
Sym=    11a
Ene=  -0.37295851792018903     
Spin= Alpha
Occup=     0.00000000
           1 -0.22363874183724738     
           2 -0.64709605831233707     
           3  -1.2686802113897371E-002
           4   1.0478708021699758E-002
           5   1.0941586367541095E-007
           6  0.25999612895212509     
           7   5.0975881677333213E-003
           8  -4.2101290161734280E-003
           9  0.22363777495194206     
          10 -0.64709521423562455     
          11  -1.2687404056274224E-002
          12   1.0478007993700749E-002
          13   7.7146333025947979E-008
          14  0.25999658063677483     
          15   5.0975846764312396E-003
          16  -4.2100736746159845E-003
          17   1.1023487857987780E-007
          18  0.25999617801661035     
          19   5.0975235851686606E-003
          20  -4.2100336237103925E-003
Sym=    12a
Ene=  -0.32674375702273534     
Spin= Alpha
Occup=     0.00000000
           1  -2.6228210989501618E-008
           2   2.8124146144071480E-003
           3 -0.27940506286893629     
           4 -0.16463519646030750     
           5   1.1559578621699927E-002
           6  -6.1729071063673742E-003
           7  0.53950391665443931     
           8  0.27201938705765227     
           9  -8.7447492541729676E-008
          10   2.8119443671395248E-003
          11 -0.27940533165262299     
          12 -0.16463534132911897     
          13  -2.6312222854496851E-002
          14  -4.6964901927600599E-003
          15  0.45356074647402544     
          16  0.25912823317951683     
          17   1.4753388217072724E-002
          18  -4.0110545809254761E-003
          19  0.48539570562848422     
          20  0.34001255640787770     
Sym=    13a
Ene=  -0.32674300376904492     
Spin= Alpha
Occup=     0.00000000
           1   1.4822010825472271E-008
           2   7.7497044844634603E-003
           3 -0.16453700777396735     
           4  0.27937090892116517     
           5  -2.3708913168978295E-002
           6  -1.3273052538793727E-002
           7  0.30858010769749744     
           8 -0.44606448984280872     
           9   2.0150809152107412E-008
          10   7.7498467820111905E-003
          11 -0.16453715099771482     
          12  0.27937115376084470     
          13   1.8439031825344904E-003
          14  -1.4917630534813847E-002
          15  0.32146114865982905     
          16 -0.53202216528958424     
          17   2.1864771780068626E-002
          18  -1.2816798942060684E-002
          19  0.24059684260582329     
          20 -0.50018809295384381     
Sym=    14a
Ene=  -0.29699484857165054     
Spin= Alpha
Occup=     0.00000000
           1  -1.8155640967940216E-009
           2  -1.6705232344122363E-007
           3   4.6231734419176820E-006
           4  -4.8454561246189347E-006
           5  -3.7094782337728236E-007
           6   1.1832835270533276E-002
           7 -0.64567501052649812     
           8  -5.1036044301694672E-002
           9  -1.8154033828084884E-009
          10  -1.7007341134528874E-007
          11   4.5984247539493768E-006
          12  -4.8084640395177458E-006
          13  -8.3402971154417001E-008
          14  -1.5833870334344250E-002
          15  0.36684832805163609     
          16 -0.53365101856309061     
          17   4.4005430873633224E-007
          18   4.0019486924501571E-003
          19  0.27880159146941813     
          20  0.58471310443790681     
Sym=    15a
Ene=    1.5264483449268436E-002
Spin= Alpha
Occup=     0.00000000
           1  -1.2222828246571612E-007
           2  -1.6511597528411557E-002
           3  0.34535824845410817     
           4 -0.60152822951156470     
           5  -4.4465864701857850E-006
           6  0.73715308616758213     
           7   1.4452587370975890E-002
           8  -1.1932118415714031E-002
           9   1.1875090685750425E-007
          10   1.6511945586928999E-002
          11 -0.34536313461706092     
          12  0.60153672725142182     
          13   3.9699096361721428E-007
          14  -6.6033882871399260E-002
          15  -1.2941676137033047E-003
          16   1.0692573795825916E-003
          17   4.0551964175762939E-006
          18 -0.67111826972463295     
          19  -1.3161918881370081E-002
          20   1.0868957536590413E-002
Sym=    16a
Ene=    1.5265871916461593E-002
Spin= Alpha
Occup=     0.00000000
           1  -7.2872515228988836E-010
           2   6.1992330541565379E-003
           3 -0.60160200046527856     
           4 -0.34557076277336313     
           5  -2.1485053166540433E-006
           6  0.34934645131848974     
           7   6.8488724644657616E-003
           8  -5.6547827562298866E-003
           9  -8.3970449772835459E-009
          10  -6.1996323345832926E-003
          11  0.60161073059875037     
          12  0.34557577750675755     
          13   5.0444757362970000E-006
          14 -0.81306556499551019     
          15  -1.5936931615722117E-002
          16   1.3168825458604054E-002
          17  -2.8626606421782690E-006
          18  0.46372083572783845     
          19   9.0943211225450495E-003
          20  -7.5105015646827200E-003
Sym=    17a
Ene=   0.10925113878376723     
Spin= Alpha
Occup=     0.00000000
           1   3.6253439579644768E-007
           2   1.5697931332036664E-002
           3 -0.31902078804757122     
           4  0.58318269161515857     
           5 -0.63736837838002636     
           6   1.0147293952891455E-002
           7  -1.2177934087307151E-002
           8  0.61227102936192090     
           9   6.2451503398742910E-008
          10   1.5698002341620637E-002
          11 -0.31901520545845291     
          12  0.58317249838554419     
          13   7.0897407264573317E-002
          14  -2.6070610109584533E-003
          15  0.10545456618769435     
          16  -3.3349465925724339E-002
          17  0.56647047842990605     
          18   1.3087504678113466E-002
          19 -0.51248263231495361     
          20  0.18740370478571000     
Sym=    18a
Ene=   0.10925155978071287     
Spin= Alpha
Occup=     0.00000000
           1   1.2806287880045118E-006
           2  -6.2671367163103292E-003
           3  0.58324928524662301     
           4  0.31922596137049597     
           5 -0.28612004903532845     
           6   6.3108729857968204E-003
           7 -0.10129449450529235     
           8  0.26727776482967569     
           9   7.2017098037003971E-008
          10  -6.2659135857364972E-003
          11  0.58323885358308514     
          12  0.31922022480551032     
          13  0.69503678671639191     
          14  -4.4298125627144748E-003
          15  0.54432045498842563     
          16  0.38512053556402387     
          17 -0.40891837424666144     
          18  -1.0116374680561745E-002
          19  0.32338693799847273     
          20 -0.23292259094638862     
Sym=    19a
Ene=   0.14050194041728478     
Spin= Alpha
Occup=     0.00000000
           1 -0.71558242177692799     
           2  0.52538932641537051     
           3   1.0301352874337633E-002
           4  -8.5069483355508010E-003
           5  -1.3279519977914520E-006
           6  0.52772565127699200     
           7   1.0346541556330734E-002
           8  -8.5440408213426633E-003
           9  0.71558491888419218     
          10  0.52539333418114609     
          11   1.0301405082316865E-002
          12  -8.5074703272965662E-003
          13  -2.9711785848550935E-007
          14  0.52772717439558459     
          15   1.0346431837395254E-002
          16  -8.5456610500879732E-003
          17  -1.1708954307884911E-006
          18  0.52772613564641924     
          19   1.0347797655393755E-002
          20  -8.5460117889036968E-003
Sym=    20a
Ene=   0.55073079762637656     
Spin= Alpha
Occup=     0.00000000
           1  0.71636347662766842     
           2 -0.65098403695884532     
           3  -1.2763822226689351E-002
           4   1.0540789965461867E-002
           5 -0.48216734515232168     
           6   9.4505609780993205E-003
           7  -4.1954017610336354E-002
           8  0.53290010000228472     
           9  0.71635827443901012     
          10  0.65098074051031796     
          11   1.2762844655354225E-002
          12  -1.0541757403562620E-002
          13 -0.48217045201427122     
          14   3.7301607019095545E-003
          15 -0.44051292018453858     
          16 -0.30293432387717939     
          17 -0.48216799805901955     
          18  -1.3184379605741517E-002
          19  0.48246710167026297     
          20 -0.22996565220440662     
