5
 energy: -10.136490385851 gnorm: 0.175819087447 xtb: 6.2.2 (9d81278992624c895f80dd42a50cac0aa55982e2)
C         1.23601700000000    0.02424100000000   -0.02000900000000
C         0.01544900000000   -0.06858700000000    0.87113900000000
C        -1.23601700000000   -0.02424000000000    0.02001100000000
C         0.00610500000000   -0.72010800000000   -0.49521100000000
C        -0.02155300000000    0.78869400000000   -0.37593000000000
5
 energy: -10.167235675333 gnorm: 0.158254936436 xtb: 6.2.2 (9d81278992624c895f80dd42a50cac0aa55982e2)
C         1.17968028909366    0.02313618202134   -0.01909671877898
C         0.01608249823055   -0.07140048899254    0.90687141460379
C        -1.17968007599861   -0.02313495501564    0.01909932408555
C         0.00635549774056   -0.74964530512642   -0.51552374678658
C        -0.02243720906616    0.82104456711325   -0.39135027312378
5
 energy: -10.240883863554 gnorm: 0.111787737358 xtb: 6.2.2 (9d81278992624c895f80dd42a50cac0aa55982e2)
C         0.93151157151864    0.01826923227144   -0.01507815576417
C         0.01864936482942   -0.08279837899041    1.05165910257081
C        -0.93151073867090   -0.01826717176535    0.01508325702947
C         0.00737082709232   -0.86933603099805   -0.59783336631330
C        -0.02602002476948    0.95213234948238   -0.45383083752281
5
 energy: -10.245687031193 gnorm: 0.049638813679 xtb: 6.2.2 (9d81278992624c895f80dd42a50cac0aa55982e2)
C         0.94878705162951    0.01860667685546   -0.01536030420374
C         0.01886875910978   -0.08377091642515    1.06402157460491
C        -0.94878648029893   -0.01860745454264    0.01536034946171
C         0.00745737446248   -0.87955209087340   -0.60485802116434
C        -0.02632570490285    0.96332378498573   -0.45916359869854
5
 energy: -10.247492731356 gnorm: 0.005345564529 xtb: 6.2.2 (9d81278992624c895f80dd42a50cac0aa55982e2)
C         0.94251886244763    0.01848345960645   -0.01525943436108
C         0.01933633019587   -0.08584069577740    1.09030967381058
C        -0.94252227258991   -0.01848495526095    0.01525826724437
C         0.00764282297490   -0.90128124846584   -0.61980085460773
C        -0.02697474302849    0.98712343989774   -0.47050765208614
5
 energy: -10.247511271622 gnorm: 0.000233469202 xtb: 6.2.2 (9d81278992624c895f80dd42a50cac0aa55982e2)
C         0.94247620211935    0.01848281178853   -0.01525858584468
C         0.01938162978005   -0.08604418286952    1.09289019890968
C        -0.94247814513982   -0.01848392595772    0.01525768666746
C         0.00766038320438   -0.90341430628848   -0.62126775325624
C        -0.02703906996395    0.98945960332719   -0.47162154647621
5
 energy: -10.247511315122 gnorm: 0.000104997685 xtb: 6.2.2 (9d81278992624c895f80dd42a50cac0aa55982e2)
C         0.94277032562820    0.01848844912039   -0.01526351723379
C         0.01937920558527   -0.08603546669610    1.09277972693369
C        -0.94277083343170   -0.01848981392237    0.01526223893458
C         0.00765910800332   -0.90332274757809   -0.62120468929212
C        -0.02703680578509    0.98935957907617   -0.47157375934236
