 Entering Gaussian System
 *********************************************
 Gaussian 98:
 frequency output generated by the xtb code
 *********************************************
                         Standard orientation:
 --------------------------------------------------------------------
  Center     Atomic     Atomic              Coordinates (Angstroms)
  Number     Number      Type              X           Y           Z
 --------------------------------------------------------------------
    1          6             0       -0.514649    0.834453    0.118621
    2          6             0        0.678015   -0.036079    0.157071
    3          6             0       -0.590951   -0.787617    0.075397
    4          6             0        1.950657   -0.090563   -0.044819
    5          7             0       -1.523073    0.079806   -0.306270
 --------------------------------------------------------------------
     1 basis functions        1 primitive gaussians
     1 alpha electrons        1 beta electrons

 Harmonic frequencies (cm**-1), IR intensities (KM/Mole),
 Raman scattering activities (A**4/amu), Raman depolarization ratios,
 reduced masses (AMU), force constants (mDyne/A) and normal coordinates:
                      1                      2                      3
                        a                      a                      a 
 Frequencies --   192.3338               208.5028               453.0642
 Red. masses --    12.1054                12.5995                12.0147
 Frc consts  --     0.0000                 0.0000                 0.0000
 IR Inten    --     0.5609                 0.4407                 1.0128
 Raman Activ --     0.0000                 0.0000                 0.0000
 Depolar     --     0.0000                 0.0000                 0.0000
 Atom AN      X      Y      Z        X      Y      Z        X      Y      Z
   1   6     0.29  -0.11  -0.14    -0.01   0.01   0.23     0.45  -0.35  -0.00
   2   6    -0.03  -0.62  -0.02    -0.05  -0.01   0.54     0.03   0.58   0.02
   3   6    -0.30  -0.09   0.13    -0.02  -0.02   0.23    -0.48  -0.31  -0.02
   4   6     0.03   0.58   0.02    -0.23   0.03  -0.50     0.00   0.03   0.00
   5   7     0.01   0.22   0.01     0.29   0.00  -0.46     0.00   0.04   0.00
                      4                      5                      6
                        a                      a                      a 
 Frequencies --   591.2101               669.6591               801.9585
 Red. masses --    12.3342                12.5035                12.8095
 Frc consts  --     0.0000                 0.0000                 0.0000
 IR Inten    --     0.3441                 0.3910                 1.5652
 Raman Activ --     0.0000                 0.0000                 0.0000
 Depolar     --     0.0000                 0.0000                 0.0000
 Atom AN      X      Y      Z        X      Y      Z        X      Y      Z
   1   6    -0.10   0.01   0.44     0.19   0.39  -0.09     0.37   0.36   0.18
   2   6    -0.06   0.02  -0.64    -0.40   0.02  -0.12    -0.00  -0.08  -0.00
   3   6    -0.11  -0.02   0.44     0.16  -0.40  -0.11    -0.33   0.40  -0.16
   4   6     0.04  -0.00   0.13    -0.43   0.02   0.09     0.00   0.00  -0.00
   5   7     0.22  -0.00  -0.34     0.45  -0.03   0.22    -0.03  -0.63  -0.02
                      7                      8                      9
                        a                      a                      a 
 Frequencies --  1050.5718              1538.5981              1754.6677
 Red. masses --    12.0288                12.9590                12.0486
 Frc consts  --     0.0000                 0.0000                 0.0000
 IR Inten    --     0.2064                 1.1548                 0.3231
 Raman Activ --     0.0000                 0.0000                 0.0000
 Depolar     --     0.0000                 0.0000                 0.0000
 Atom AN      X      Y      Z        X      Y      Z        X      Y      Z
   1   6    -0.35   0.49  -0.02    -0.36  -0.30  -0.15     0.00  -0.14  -0.02
   2   6     0.21  -0.01   0.10     0.13  -0.01  -0.02    -0.76   0.03   0.08
   3   6    -0.40  -0.45  -0.05    -0.33   0.34  -0.13     0.02   0.14  -0.01
   4   6     0.45  -0.02  -0.07    -0.12   0.01   0.02     0.59  -0.03  -0.10
   5   7     0.09  -0.00   0.03     0.64  -0.04   0.26     0.13  -0.01   0.04
