$hessian                                                                        
        0.2745086589   0.0690560196   0.0680296416  -0.1078235549   0.0177970774
       -0.0021570373   0.1515904245  -0.0382244665   0.0297996114  -0.0437928021
        0.0064597085   0.0061757351  -0.2744827263  -0.0550883390  -0.1018479508
        0.0690560196   0.3249082790   0.0580985796   0.1187370120  -0.0326801591
        0.0086802498   0.0009511051  -0.2274754995   0.0083578182   0.0036270818
       -0.0019484372   0.0000529203  -0.1923712185  -0.0628041832  -0.0751895679
        0.0680296416   0.0580985796   0.0662478377  -0.0011502412  -0.0018293512
       -0.0390482093   0.0291833692  -0.0258354116   0.0462330970   0.0098184926
       -0.0017258495   0.0052178585  -0.1058812623  -0.0287079673  -0.0786505839
       -0.1078235549   0.1187370120  -0.0011502412   0.8768741859  -0.0377207489
       -0.0601063552  -0.1199497676  -0.1102242595  -0.0070764827  -0.5662653736
        0.0240570847   0.0882918118  -0.0828354898   0.0051509116  -0.0199587327
        0.0177970774  -0.0326801591  -0.0018293512  -0.0377207489   0.0421789858
        0.0014733418  -0.0095022290  -0.0202498076   0.0028949217   0.0239345475
       -0.0054818373  -0.0032763975   0.0054913529   0.0162328182   0.0007374852
       -0.0021570373   0.0086802498  -0.0390482093  -0.0601063552   0.0014733418
        0.0883712384  -0.0036185679  -0.0074680378  -0.0394311150   0.0954129014
       -0.0036888762  -0.0355763481  -0.0295309410   0.0010033225   0.0256844340
        0.1515904245   0.0009511051   0.0291833692  -0.1199497676  -0.0095022290
       -0.0036185679   0.2617499082  -0.0662305337   0.0592948605  -0.0443713491
       -0.0027347445   0.0058719883  -0.2490192160   0.0775164020  -0.0907316501
       -0.0382244665  -0.2274754995  -0.0258354116  -0.1102242595  -0.0202498076
       -0.0074680378  -0.0662305337   0.3434198962  -0.0497164267  -0.0002780660
       -0.0013591059  -0.0011027771   0.2149573257  -0.0943354832   0.0841226532
        0.0297996114   0.0083578182   0.0462330970  -0.0070764827   0.0028949217
       -0.0394311150   0.0592948605  -0.0497164267   0.0605379359   0.0098539363
        0.0005001101   0.0052767759  -0.0918719255   0.0379635767  -0.0726166937
       -0.0437928021   0.0036270818   0.0098184926  -0.5662653736   0.0239345475
        0.0954129014  -0.0443713491  -0.0002780660   0.0098539363   0.6489191777
       -0.0275133353  -0.1028731574   0.0055103472   0.0002297720  -0.0122121729
        0.0064597085  -0.0019484372  -0.0017258495   0.0240570847  -0.0054818373
       -0.0036888762  -0.0027347445  -0.0013591059   0.0005001101  -0.0275133353
        0.0070368886   0.0043319131  -0.0002687135   0.0017524918   0.0005827024
        0.0061757351   0.0000529203   0.0052178585   0.0882918118  -0.0032763975
       -0.0355763481   0.0058719883  -0.0011027771   0.0052767759  -0.1028731574
        0.0043319131   0.0250463543   0.0025336222  -0.0000056588   0.0000353594
       -0.2744827263  -0.1923712185  -0.1058812623  -0.0828354898   0.0054913529
       -0.0295309410  -0.2490192160   0.2149573257  -0.0918719255   0.0055103472
       -0.0002687135   0.0025336222   0.6008270848  -0.0278087466   0.2247505065
       -0.0550883390  -0.0628041832  -0.0287079673   0.0051509116   0.0162328182
        0.0010033225   0.0775164020  -0.0943354832   0.0379635767   0.0002297720
        0.0017524918  -0.0000056588  -0.0278087466   0.1391543564  -0.0102532730
       -0.1018479508  -0.0751895679  -0.0786505839  -0.0199587327   0.0007374852
        0.0256844340  -0.0907316501   0.0841226532  -0.0726166937  -0.0122121729
        0.0005827024   0.0000353594   0.2247505065  -0.0102532730   0.1255474843
