[Molden Format]
[Title]
[Atoms] AU
N      1     7 -0.76300452160893E+00  0.63785732519442E+00  0.18917923957049E+00
C      2     6  0.12545297932270E+01 -0.75768150985877E+00  0.57622814952072E+00
N      3     7 -0.16849415264139E+01 -0.14365486222316E+01 -0.41225167208471E+00
H      4     1 -0.15225156132462E+01  0.23883088661049E+01  0.49870548877783E+00
H      5     1  0.27159318680387E+01 -0.83193794893164E+00 -0.85185931605508E+00
[GTO]
           1 0
 s           4   1.0000000000000000     
   63.594024466941008      -0.19234388414721629     
   10.951417231523665      -0.23478107924953728     
  0.87999310257376984       0.37593753901700888     
  0.33538715296521110       0.14982889271862770     
 p           4   1.0000000000000000     
   7.2965040481495080       0.97658666315667420     
   1.8918745450712575       0.90372226730345739     
  0.66694432110824120       0.47404958461536373     
  0.26552202674130870        7.1516067715011844E-002

           2 0
 s           4   1.0000000000000000     
   51.049363095579913      -0.16312063210127389     
   8.7911227406887544      -0.19911024581000730     
  0.70640422258929825       0.31882047753655751     
  0.26922813413411617       0.12706504184240380     
 p           4   1.0000000000000000     
   5.8263656140800002       0.73716451545209605     
   1.5106896018720002       0.68216371614850257     
  0.53256483288000001       0.35783053929253711     
  0.21202323690600003        5.3983030275847881E-002

           3 0
 s           4   1.0000000000000000     
   63.594024466941008      -0.19234388414721629     
   10.951417231523665      -0.23478107924953728     
  0.87999310257376984       0.37593753901700888     
  0.33538715296521110       0.14982889271862770     
 p           4   1.0000000000000000     
   7.2965040481495080       0.97658666315667420     
   1.8918745450712575       0.90372226730345739     
  0.66694432110824120       0.47404958461536373     
  0.26552202674130870        7.1516067715011844E-002

           4 0
 s           3   1.0000000000000000     
   3.3702276975336001       0.27359110588908298     
  0.61389118221497996       0.26460540653860526     
  0.16614291148415999        8.2465947534082318E-002

           5 0
 s           3   1.0000000000000000     
   3.3702276975336001       0.27359110588908298     
  0.61389118221497996       0.26460540653860526     
  0.16614291148415999        8.2465947534082318E-002

[MO]
Sym=     1a
Ene=  -0.72401936754660179     
Spin= Alpha
Occup=     2.00000000
           1 -0.50967531071035310     
           2  -4.4740618454794066E-003
           3  0.23075677240887266     
           4   3.2855848035536372E-002
           5 -0.20516066782300496     
           6  0.13903798483939137     
           7  -4.7134946365749004E-002
           8   3.2103613893672125E-002
           9 -0.30312328166349817     
          10 -0.13786268050311642     
          11 -0.19429013230181424     
          12  -7.0643441143436472E-002
          13  -6.4809968890658820E-002
          14  -1.9371099350696700E-002
Sym=     2a
Ene=  -0.63957953504211218     
Spin= Alpha
Occup=     2.00000000
           1  0.37567536869259488     
           2 -0.20600353804794888     
           3  0.44103801495886713     
           4   6.5553126464395414E-002
           5 -0.16781715858967283     
           6   4.4118458573273990E-002
           7   6.3518479645553211E-002
           8   4.1232002699312979E-002
           9 -0.15282992343225787     
          10 -0.13695384250345885     
          11   6.5756072894995979E-002
          12  -6.5952065588228085E-003
          13  0.40574564637894939     
          14  -5.0505000873175644E-002
Sym=     3a
Ene=  -0.62403522644272624     
Spin= Alpha
Occup=     2.00000000
           1 -0.11602189457057012     
           2 -0.52127380474404961     
           3 -0.17834253575262163     
           4 -0.17383105499781720     
           5 -0.36012308518880481     
           6   2.5574915037475592E-002
           7 -0.16202157990054528     
           8  -1.2216681926308871E-003
           9  0.35786829356903732     
          10 -0.11014469627161218     
          11  0.17194278945348457     
          12   1.8213084347580722E-003
          13  -5.0014304899658954E-002
          14 -0.11770896029366791     
Sym=     4a
Ene=  -0.57807055071560154     
Spin= Alpha
Occup=     2.00000000
           1   3.8281302355274494E-002
           2  0.11681930520774574     
           3  0.15983030186971461     
           4 -0.68699769727280868     
           5  -9.3301947519467184E-003
           6  0.12532985555443199     
           7   2.3425917881843682E-002
           8 -0.24700626779680057     
           9   4.3554096026624019E-003
          10   7.4452656959522301E-002
          11   8.6365513511226150E-002
          12 -0.37021525877962141     
          13   1.5306601783648212E-002
          14  0.13671627004037407     
Sym=     5a
Ene=  -0.50825496160177197     
Spin= Alpha
Occup=     2.00000000
           1 -0.12654507059540565     
           2 -0.29740204569350015     
           3   2.8089684885923664E-002
           4  0.15195566496245103     
           5  0.37999236343612786     
           6  0.36159505614003173     
           7 -0.20056165852117611     
           8  -3.9746375408848907E-002
           9  0.15737960102704421     
          10 -0.13775524571969960     
          11  -3.7029134904922746E-002
          12  0.10789899739207608     
          13  0.12846425517178875     
          14  0.47016732747824114     
Sym=     6a
Ene=  -0.45863453055239750     
Spin= Alpha
Occup=     2.00000000
           1   8.3358176880655166E-002
           2 -0.17643784171502566     
           3 -0.21888376560790143     
           4  -4.3660563544789643E-002
           5   1.8350681496672700E-002
           6  0.12172249717241428     
           7   5.1801093056208343E-002
           8   1.6777689379471696E-002
           9 -0.69176436292677801     
          10   4.9633547712678486E-002
          11  0.58702014031344218     
          12  0.16863086584223058     
          13 -0.18712289189933132     
          14   7.9803187045220728E-002
Sym=     7a
Ene=  -0.41720857271375378     
Spin= Alpha
Occup=     2.00000000
           1   6.0203404690019266E-002
           2  0.16979853870023645     
           3  -7.7806725636854271E-002
           4   4.6580539826504154E-002
           5   7.6870790267909714E-004
           6  0.18291677422264971     
           7  0.53086315135547346     
           8  0.12101705955479738     
           9  0.25270537279646443     
          10 -0.65001479494156900     
          11  0.16239557413606789     
          12 -0.10852826541041799     
          13 -0.21357004641166100     
          14   3.4475988006159065E-002
Sym=     8a
Ene=  -0.35349381554326154     
Spin= Alpha
Occup=     2.00000000
           1  -4.9738406054043581E-002
           2  -7.2087770873388385E-002
           3  -1.0868495735945690E-002
           4   1.5797018993374511E-002
           5  0.41244957557834461     
           6   6.9223105598502241E-002
           7 -0.18479021553196526     
           8  0.64059554640312855     
           9  -1.7386555851284013E-004
          10   9.1843405951648333E-002
          11  0.16074692100934532     
          12 -0.60964989080639864     
          13   4.2409286227767747E-002
          14 -0.20516165736482939     
Sym=     9a
Ene=  -0.30492677428286347     
Spin= Alpha
Occup=     0.00000000
           1  -2.5799125602936648E-002
           2 -0.14991918168927582     
           3 -0.15655408955657185     
           4  0.66206306483007504     
           5 -0.28566821943731802     
           6  -3.0979427566810581E-002
           7  0.17517513290070882     
           8 -0.38131005967495535     
           9  -4.0849965477481450E-003
          10  0.23120484431532973     
          11   9.6681124786436368E-002
          12 -0.63793184460280306     
          13   1.1537836139941995E-002
          14  0.19560659574250147     
Sym=    10a
Ene=  -0.18325249213149747     
Spin= Alpha
Occup=     0.00000000
           1   7.0491828821840630E-002
           2  0.24459958443153865     
           3   5.9389937813567759E-002
           4  0.12696342314990886     
           5  0.16116716118289057     
           6 -0.45816397546605969     
           7 -0.64139826199769745     
           8 -0.32078158821081648     
           9 -0.16750545797547819     
          10 -0.66800878481135750     
          11  0.22166393230719530     
          12 -0.18193296607580664     
          13  -3.9709999339769535E-002
          14  -3.1368461991382060E-002
Sym=    11a
Ene=   -1.2978237876136101E-002
Spin= Alpha
Occup=     0.00000000
           1  0.98702148524832589     
           2 -0.12418988687235785     
           3  0.33378442083864301     
           4   9.4839029739151773E-002
           5 -0.25805157935506073     
           6  0.18353086279643668     
           7 -0.26441685339870818     
           8  0.14990953686243291     
           9  -5.1367825780682802E-002
          10   3.7777817150684921E-002
          11 -0.30087518060725854     
          12  -7.7665426363827963E-002
          13 -0.95930542243855632     
          14  0.16975196602316581     
Sym=    12a
Ene=   0.19756709543617784     
Spin= Alpha
Occup=     0.00000000
           1 -0.17417251135870584     
           2  0.68713725193756559     
           3  0.16362060420855795     
           4  0.10023390299556685     
           5 -0.80125157930303126     
           6  -3.2092534261013696E-002
           7 -0.28670529524580241     
           8  0.51004365064282031     
           9  0.39044673256782192     
          10  0.18455567342663126     
          11  0.50877705086257730     
          12  0.12636288596625006     
          13  0.15392128543785991     
          14  0.71734408115955917     
Sym=    13a
Ene=   0.24233482740006534     
Spin= Alpha
Occup=     0.00000000
           1  -1.7914755165465895E-002
           2 -0.44429549143616387     
           3 -0.28352157195685523     
           4 -0.31389225472423371     
           5 -0.20547228156377612     
           6 -0.82181852081575080     
           7  0.25348972958241295     
           8  0.43645479118238178     
           9 -0.42385336276414726     
          10 -0.22444210413969012     
          11 -0.44131025103857591     
          12 -0.14942473503488071     
          13   9.5515889204323218E-002
          14  0.85838977850703346     
Sym=    14a
Ene=   0.51605653183141698     
Spin= Alpha
Occup=     0.00000000
           1  0.53115617144178406     
           2  0.40148961656326770     
           3  -1.0667210542170320     
           4  -8.6269160189601887E-002
           5 -0.43909850107380755     
           6  0.62456289227102524     
           7 -0.34876450013295413     
           8   6.0059753919319961E-002
           9 -0.39684932948681201     
          10 -0.22367547618777661     
          11 -0.48494477903944289     
          12 -0.13162401571522139     
          13  0.61020425350834118     
          14 -0.13011311159650774     
