 Entering Gaussian System
 *********************************************
 Gaussian 98:
 frequency output generated by the xtb code
 *********************************************
                         Standard orientation:
 --------------------------------------------------------------------
  Center     Atomic     Atomic              Coordinates (Angstroms)
  Number     Number      Type              X           Y           Z
 --------------------------------------------------------------------
    1          7             0       -0.403765    0.337540    0.100109
    2          6             0        0.663869   -0.400948    0.304927
    3          7             0       -0.891633   -0.760189   -0.218154
    4          1             0       -0.805681    1.263839    0.263904
    5          1             0        1.437209   -0.440243   -0.450785
 --------------------------------------------------------------------
     1 basis functions        1 primitive gaussians
     1 alpha electrons        1 beta electrons

 Harmonic frequencies (cm**-1), IR intensities (KM/Mole),
 Raman scattering activities (A**4/amu), Raman depolarization ratios,
 reduced masses (AMU), force constants (mDyne/A) and normal coordinates:
                      1                      2                      3
                        a                      a                      a 
 Frequencies --   627.2302               741.5362               872.7658
 Red. masses --    10.8139                 3.8463                 4.1981
 Frc consts  --     0.0000                 0.0000                 0.0000
 IR Inten    --     0.7467                 0.3969                 1.0141
 Raman Activ --     0.0000                 0.0000                 0.0000
 Depolar     --     0.0000                 0.0000                 0.0000
 Atom AN      X      Y      Z        X      Y      Z        X      Y      Z
   1   7     0.11  -0.33  -0.09     0.03  -0.23   0.24     0.10   0.14  -0.04
   2   6     0.41   0.44   0.15     0.15   0.01  -0.06    -0.30   0.05  -0.32
   3   7    -0.53   0.03  -0.15    -0.29   0.04  -0.05    -0.02  -0.21   0.10
   4   1     0.07  -0.11   0.27     0.22   0.16  -0.61     0.20   0.04   0.32
   5   1     0.11  -0.27   0.09     0.22   0.51   0.13     0.51   0.05   0.57
                      4                      5                      6
                        a                      a                      a 
 Frequencies --   927.4184              1093.2902              1440.9333
 Red. masses --     5.1878                 2.3601                11.5564
 Frc consts  --     0.0000                 0.0000                 0.0000
 IR Inten    --     0.4358                 0.1265                 1.6817
 Raman Activ --     0.0000                 0.0000                 0.0000
 Depolar     --     0.0000                 0.0000                 0.0000
 Atom AN      X      Y      Z        X      Y      Z        X      Y      Z
   1   7    -0.14   0.01   0.40     0.06   0.05   0.09     0.67  -0.00   0.16
   2   6    -0.09   0.23  -0.19     0.14  -0.13  -0.15    -0.45   0.29  -0.01
   3   7     0.17  -0.10  -0.14    -0.06   0.19   0.05    -0.14  -0.25  -0.10
   4   1     0.20   0.18  -0.36    -0.76  -0.27  -0.25    -0.18  -0.15  -0.09
   5   1    -0.00  -0.67   0.05     0.28  -0.18   0.24    -0.25   0.09  -0.11
                      7                      8                      9
                        a                      a                      a 
 Frequencies --  1612.4161              2991.9469              3173.2347
 Red. masses --    13.2933                 1.8597                 1.8496
 Frc consts  --     0.0000                 0.0000                 0.0000
 IR Inten    --     0.9097                 0.2529                 0.1931
 Raman Activ --     0.0000                 0.0000                 0.0000
 Depolar     --     0.0000                 0.0000                 0.0000
 Atom AN      X      Y      Z        X      Y      Z        X      Y      Z
   1   7    -0.00  -0.64  -0.11     0.01  -0.02   0.01    -0.11   0.23   0.04
   2   6    -0.33   0.16  -0.10    -0.21   0.03   0.18     0.01   0.00   0.01
   3   7     0.30   0.53   0.18    -0.01  -0.00  -0.00    -0.01   0.01  -0.00
   4   1     0.06  -0.15   0.00    -0.01   0.02   0.01     0.38  -0.88  -0.16
   5   1    -0.02  -0.00   0.07     0.71  -0.06  -0.64     0.02  -0.00  -0.02
