5
 energy: -8.678932624442 gnorm: 0.173678426931 xtb: 6.2.2 (9d81278992624c895f80dd42a50cac0aa55982e2)
N        -0.50186300000000    0.15577800000000    0.44676700000000
C         0.87664000000000   -0.30866600000000    0.47994200000000
N        -1.21269500000000   -0.71604400000000   -0.38830000000000
H        -0.50888200000000    1.09435100000000   -0.01319000000000
H         1.34680000000000   -0.22542000000000   -0.52521800000000
5
 energy: -8.726706143785 gnorm: 0.150120443975 xtb: 6.2.2 (9d81278992624c895f80dd42a50cac0aa55982e2)
N        -0.47240572952033    0.18119798336079    0.35891915380708
C         0.80979108727094   -0.37287249315639    0.43402815415311
N        -1.14504467465087   -0.72592985234227   -0.32064803334675
H        -0.57494525497017    1.15475058132990    0.02666519253947
H         1.38260457187043   -0.23714721919204   -0.49896346715291
5
 energy: -8.770416974119 gnorm: 0.215364813850 xtb: 6.2.2 (9d81278992624c895f80dd42a50cac0aa55982e2)
N        -0.41104144677391    0.21756090812070    0.16174537420990
C         0.64410033845713   -0.48723047744107    0.34748996349909
N        -0.95383073658320   -0.74263365438119   -0.17533616491362
H        -0.67336391710132    1.27105082214451    0.11524863377987
H         1.39413576200130   -0.25874859844296   -0.44914680657523
5
 energy: -8.777007877198 gnorm: 0.088053365784 xtb: 6.2.2 (9d81278992624c895f80dd42a50cac0aa55982e2)
N        -0.40658536665978    0.29122814125875    0.12925614660367
C         0.64263805279402   -0.53727900900948    0.32726688687986
N        -0.95267796532405   -0.82695700542558   -0.17587382042198
H        -0.70736150219075    1.35015077064137    0.16123405027537
H         1.42398678138057   -0.27714389746506   -0.44188226333691
5
 energy: -8.783139370741 gnorm: 0.058999425985 xtb: 6.2.2 (9d81278992624c895f80dd42a50cac0aa55982e2)
N        -0.42702229608787    0.30347978526896    0.18712045901724
C         0.66807444579663   -0.41783122980412    0.34203231475670
N        -0.86459188327725   -0.80319311298144   -0.25557175873761
H        -0.72928134796029    1.31912283835120    0.20624849582521
H         1.35282108152877   -0.40157928083460   -0.47982851086154
5
 energy: -8.784970121104 gnorm: 0.052029420729 xtb: 6.2.2 (9d81278992624c895f80dd42a50cac0aa55982e2)
N        -0.43520144868856    0.29072722119304    0.18706492461844
C         0.64562573669817   -0.43413469044823    0.30622997350632
N        -0.92859134465035   -0.75096071173688   -0.21179904430014
H        -0.72226480730473    1.24267712801749    0.17423008990379
H         1.44043186394547   -0.34830994702541   -0.45572494372841
5
 energy: -8.787423044493 gnorm: 0.057563811404 xtb: 6.2.2 (9d81278992624c895f80dd42a50cac0aa55982e2)
N        -0.41142149074524    0.30715635870600    0.13561094671686
C         0.64763399442224   -0.43664011214763    0.29850406631525
N        -0.89753521254488   -0.76833762919419   -0.20603197990085
H        -0.79138180971542    1.30348493341332    0.22272871167143
H         1.45270451858329   -0.40566455077750   -0.45081074480269
5
 energy: -8.788497001022 gnorm: 0.024158360463 xtb: 6.2.2 (9d81278992624c895f80dd42a50cac0aa55982e2)
N        -0.40820511835920    0.31490322388486    0.13721417851890
C         0.65867662234758   -0.44242009552852    0.31396470092045
N        -0.89817310740245   -0.77900496629357   -0.21573758105324
H        -0.75896460420257    1.28855570284113    0.21403734058920
H         1.40666620761664   -0.38203486490390   -0.44947763897531
5
 energy: -8.789237097588 gnorm: 0.009997271941 xtb: 6.2.2 (9d81278992624c895f80dd42a50cac0aa55982e2)
N        -0.41251538815933    0.32002023893410    0.13500987459948
C         0.65676981821522   -0.42636057302727    0.30618014408243
N        -0.90036296245326   -0.76940186672189   -0.21625840478113
H        -0.77536371340112    1.27802789628954    0.22690098994232
H         1.43147224579848   -0.40228669547448   -0.45183160384310
5
 energy: -8.789617317507 gnorm: 0.010214635180 xtb: 6.2.2 (9d81278992624c895f80dd42a50cac0aa55982e2)
N        -0.40727630536997    0.32840343853952    0.11714008644703
C         0.65776463274769   -0.41312256377247    0.30189326016024
N        -0.89579902795140   -0.76217843897774   -0.21528151066287
H        -0.79502497459710    1.27051755995117    0.24624716871217
H         1.44033567517079   -0.42362099574048   -0.44999800465656
5
 energy: -8.789751722229 gnorm: 0.003362281295 xtb: 6.2.2 (9d81278992624c895f80dd42a50cac0aa55982e2)
N        -0.40421052256535    0.33567202823368    0.10397847829605
C         0.66309940623139   -0.40254043660407    0.30257498626721
N        -0.89495571326235   -0.75939785522751   -0.21742992502265
H        -0.80641924721025    1.26469633267285    0.26073577145621
H         1.44248607680655   -0.43843106907496   -0.44985831099682
5
 energy: -8.789763421171 gnorm: 0.002045897221 xtb: 6.2.2 (9d81278992624c895f80dd42a50cac0aa55982e2)
N        -0.40327695529873    0.33885450120659    0.09973287831466
C         0.66258944432943   -0.40193592083429    0.30380101392603
N        -0.88987098351249   -0.76012873506072   -0.21756755397936
H        -0.80582903725824    1.26309075925980    0.26409372822759
H         1.43638753174004   -0.43988160457138   -0.45005906648892
5
 energy: -8.789768666022 gnorm: 0.000763851893 xtb: 6.2.2 (9d81278992624c895f80dd42a50cac0aa55982e2)
N        -0.40309620986812    0.33767868269513    0.09922841809183
C         0.66442117224374   -0.40052993945029    0.30488160539528
N        -0.89203208491199   -0.75988666108099   -0.21821002382235
H        -0.80637737086946    1.26343566729862    0.26443253562050
H         1.43708449340582   -0.44069874946246   -0.45033153528526
5
 energy: -8.789769138790 gnorm: 0.000311380359 xtb: 6.2.2 (9d81278992624c895f80dd42a50cac0aa55982e2)
N        -0.40376675890536    0.33753730278413    0.10010853134742
C         0.66386967351755   -0.40094488152732    0.30492845086206
N        -0.89162799834885   -0.76019315157946   -0.21815864942207
H        -0.80568817915042    1.26383406265213    0.26390299752469
H         1.43721326288708   -0.44023433232947   -0.45078033031209
