5
 energy: -11.071354969662 gnorm: 0.000764283005 xtb: 6.2.2 (9d81278992624c895f80dd42a50cac0aa55982e2)
N         1.58449363357824   -0.69410842479124   -0.04178513056072
C         0.50112333806969   -0.21945301244978   -0.00609410628022
C        -0.97738959020783    0.43059706310288    0.33787087286298
C        -0.09354869453150    1.29334454781279   -0.15323433571209
C        -1.01467968690861   -0.81038017366941   -0.13675730030645
