      -----------------------------------------------------------      
     |                   =====================                   |     
     |                           x T B                           |     
     |                   =====================                   |     
     |                         S. Grimme                         |     
     |          Mulliken Center for Theoretical Chemistry        |     
     |                    University of Bonn                     |     
      -----------------------------------------------------------      

   * xtb version 6.2.2 (9d81278992624c895f80dd42a50cac0aa55982e2) compiled by '@Darwin' on 04/03/2020

   xtb is free software: you can redistribute it and/or modify it under
   the terms of the GNU Lesser General Public License as published by
   the Free Software Foundation, either version 3 of the License, or
   (at your option) any later version.
   
   xtb is distributed in the hope that it will be useful,
   but WITHOUT ANY WARRANTY; without even the implied warranty of
   MERCHANTABILITY or FITNESS FOR A PARTICULAR PURPOSE.  See the
   GNU Lesser General Public License for more details.
   
   Cite this work as:
   * S. Grimme, C. Bannwarth, P. Shushkov, J. Chem. Theory Comput., 2017,
     13, 1989-2009. DOI: 10.1021/acs.jctc.7b00118
   * C. Bannwarth, S. Ehlert and S. Grimme., J. Chem. Theory Comput., 2019,
     15, 1652-1671. DOI: 10.1021/acs.jctc.8b01176
   * P. Pracht, E. Caldeweyher, S. Ehlert, S. Grimme, ChemRxiv, 2019, preprint.
     DOI: 10.26434/chemrxiv.8326202.v1
   
   for DFT-D4:
   * E. Caldeweyher, C. Bannwarth and S. Grimme, J. Chem. Phys., 2017,
     147, 034112. DOI: 10.1063/1.4993215
   * E. Caldeweyher, S. Ehlert, A. Hansen, H. Neugebauer, S. Spicher,
     C. Bannwarth and S. Grimme, J. Chem. Phys., 2019, 150, 154122.
     DOI: 10.1063/1.5090222
   
   for sTDA-xTB:
   * S. Grimme and C. Bannwarth, J. Chem. Phys., 2016, 145, 054103.
     DOI: 10.1063/1.4959605
   
   in the mass-spec context:
   * V. Asgeirsson, C. Bauer and S. Grimme, Chem. Sci., 2017, 8, 4879.
     DOI: 10.1039/c7sc00601b
   
   for metadynamics refer to:
   * S. Grimme, J. Chem. Theory Comput., 2019, 155, 2847-2862
     DOI: 10.1021/acs.jctc.9b00143
   
   with help from (in alphabetical order)
   C. Bannwarth, F. Bohle, G. Brandenburg, E. Caldeweyher, M. Checinski,
   S. Dohm, S. Ehlert, S. Ehrlich, F. März, H. Neugebauer, J. Pisarek,
   P. Pracht, P. Shushkov, and S. Spicher.
   
 * started run on 2020/05/12 at 11:44:08.219     

           -------------------------------------------------
          |                Calculation Setup                |
           -------------------------------------------------

          program call               : xtb --input C4N1_23_S_3.input C4N1_23_S_3.xyz --ohess --molden --namespace C4N1_23_S_3 output.out
          calculation namespace      : C4N1_23_S_3
          coordinate file            : C4N1_23_S_3.xyz
          number of atoms            :                     5
          number of electrons        :                    21
          charge                     :                     0
          spin                       :                   1.5
          first test random number   :      0.43953916407324

   ID    Z sym.   atoms
    1    7 N      1
    2    6 C      2-5

           -------------------------------------------------
          |                 G F N 2 - x T B                 |
           -------------------------------------------------

        Reference                      10.1021/acs.jctc.8b01176
      * Hamiltonian:
        H0-scaling (s, p, d)           1.850000    2.230000    2.230000
        zeta-weighting                 0.500000
      * Dispersion:
        s8                             2.700000
        a1                             0.520000
        a2                             5.000000
        s9                             5.000000
      * Repulsion:
        kExp                           1.500000    1.000000
        rExp                           1.000000
      * Coulomb:
        alpha                          2.000000
        third order                    shell-resolved
        anisotropic                    true
        a3                             3.000000
        a5                             4.000000
        cn-shift                       1.200000
        cn-exp                         4.000000
        max-rad                        5.000000


          ...................................................
          :                      SETUP                      :
          :.................................................:
          :  # basis functions                  20          :
          :  # atomic orbitals                  20          :
          :  # shells                           10          :
          :  # electrons                        21          :
          :  max. iterations                   250          :
          :  Hamiltonian                  GFN2-xTB          :
          :  restarted?                      false          :
          :  GBSA solvation                  false          :
          :  PC potential                    false          :
          :  electronic temp.          300.0000000     K    :
          :  accuracy                    1.0000000          :
          :  -> integral cutoff          0.2500000E+02      :
          :  -> integral neglect         0.1000000E-07      :
          :  -> SCF convergence          0.1000000E-05 Eh   :
          :  -> wf. convergence          0.1000000E-03 e    :
          :  Broyden damping             0.4000000          :
          ...................................................

 iter      E             dE          RMSdq      gap      omega  full diag
   1    -10.9581779 -0.109582E+02  0.885E+00    0.35       0.0  T
   2    -10.5412460  0.416932E+00  0.880E+00    0.09       1.0  T
   3    -10.4656582  0.755878E-01  0.846E+00    0.82       1.0  T
   4    -11.0008246 -0.535166E+00  0.298E+00    0.20       1.0  T
   5    -11.0190714 -0.182468E-01  0.121E+00    0.37       1.0  T
   6    -11.0197161 -0.644670E-03  0.113E+00    0.37       1.0  T
   7    -11.0219145 -0.219845E-02  0.355E-01    0.35       1.0  T
   8    -11.0221742 -0.259699E-03  0.206E-01    0.33       1.0  T
   9    -11.0221438  0.304437E-04  0.190E-01    0.33       1.0  T
  10    -11.0222987 -0.154895E-03  0.791E-02    0.34       1.0  T
  11    -11.0223358 -0.370723E-04  0.166E-02    0.34       2.7  T
  12    -11.0223361 -0.369645E-06  0.797E-03    0.34       5.6  T
  13    -11.0223363 -0.140042E-06  0.863E-04    0.34      51.8  T
  14    -11.0223363  0.172429E-09  0.565E-04    0.34      79.2  T

   *** convergence criteria satisfied after 14 iterations ***

         #    Occupation            Energy/Eh            Energy/eV
      -------------------------------------------------------------
         1        2.0000           -0.7144411             -19.4409
       ...           ...                  ...                  ...
         6        2.0000           -0.5434928             -14.7892
         7        2.0000           -0.5067463             -13.7893
         8        2.0000           -0.4651918             -12.6585
         9        2.0000           -0.4598172             -12.5123
        10        1.0000           -0.4372161             -11.8973
        11        0.9995           -0.4237027             -11.5295
        12        0.9988           -0.4227717             -11.5042 (HOMO)
        13        0.0017           -0.4103070             -11.1650 (LUMO)
        14                         -0.3058894              -8.3237
        15                         -0.2755125              -7.4971
        16                          0.0113785               0.3096
        17                          0.0203147               0.5528
       ...                                ...                  ...
        20                          0.1438624               3.9147
      -------------------------------------------------------------
                  HL-Gap            0.0124647 Eh            0.3392 eV
             Fermi-level           -0.4324513 Eh          -11.7676 eV

 SCC (total)                   0 d,  0 h,  0 min,  0.005 sec
 SCC setup                      ...        0 min,  0.000 sec (  1.695%)
 Dispersion                     ...        0 min,  0.000 sec (  0.384%)
 integral evaluation            ...        0 min,  0.001 sec ( 30.633%)
 zeroth order Hamiltonian       ...        0 min,  0.000 sec (  0.405%)
 iterations                     ...        0 min,  0.002 sec ( 36.133%)
 molecular gradient             ...        0 min,  0.001 sec ( 29.388%)
 printout                       ...        0 min,  0.000 sec (  1.096%)

         :::::::::::::::::::::::::::::::::::::::::::::::::::::
         ::                     SUMMARY                     ::
         :::::::::::::::::::::::::::::::::::::::::::::::::::::
         :: total energy             -10.954587503079 Eh    ::
         :: gradient norm              0.225445228230 Eh/a0 ::
         :: HOMO-LUMO gap              0.339181852084 eV    ::
         ::.................................................::
         :: SCC energy               -11.022336270900 Eh    ::
         :: -> isotropic ES           -0.006276146475 Eh    ::
         :: -> anisotropic ES          0.000149619001 Eh    ::
         :: -> anisotropic XC          0.009401974065 Eh    ::
         :: -> dispersion             -0.003019409329 Eh    ::
         :: repulsion energy           0.067748698564 Eh    ::
         :: add. restraining           0.000000000000 Eh    ::
         :::::::::::::::::::::::::::::::::::::::::::::::::::::

      ----------------------------------------------------------- 
     |                   =====================                   |
     |                        A N C O P T                        |
     |                   =====================                   |
     |               Approximate Normal Coordinate               |
     |                Rational Function Optimizer                |
      ----------------------------------------------------------- 

          ...................................................
          :                      SETUP                      :
          :.................................................:
          :   optimization level            normal          :
          :   max. optcycles                   200          :
          :   ANC micro-cycles                  20          :
          :   degrees of freedom                 9          :
          :.................................................:
          :   RF solver                   davidson          :
          :   write xtbopt.log                true          :
          :   linear?                        false          :
          :   energy convergence         0.5000000E-05 Eh   :
          :   grad. convergence          0.1000000E-02 Eh/α :
          :   maximium RF displ.         1.0000000          :
          :   Hlow (freq-cutoff)         0.1000000E-01      :
          :   Hmax (freq-cutoff)         5.0000000          :
          :   S6 in model hess.         20.0000000          :
          ...................................................

generating ANC from model Hessian ...
Using Lindh-Hessian (1995)
 Shifting diagonal of input Hessian by    0.0000000000000000     
 Lowest  eigenvalues of input Hessian
   -0.000000   -0.000000   -0.000000    0.000000    0.000000    0.000000
    0.025708    0.043075    0.161048    0.195868    0.671509    0.822246
    0.897333    1.078934    1.190542
 Highest eigenvalues
    0.195868    0.671509    0.822246    0.897333    1.078934    1.190542


........................................................................
.............................. CYCLE    1 ..............................
........................................................................
   1    -11.0223363 -0.110223E+02  0.405E-05    0.34       0.0  T
   2    -11.0223363  0.862475E-10  0.973E-05    0.34     459.6  T
   3    -11.0223363 -0.843752E-10  0.371E-05    0.34    1206.4  T
     SCC iter.                  ...        0 min,  0.000 sec
     gradient                   ...        0 min,  0.001 sec
 * total energy  :   -10.9545875 Eh     change       -0.7369927E-09 Eh
   gradient norm :     0.2254475 Eh/α   predicted     0.0000000E+00 (-100.00%)
   displ. norm   :     0.3421116 α      lambda       -0.7069460E-01
   maximum displ.:     0.2804937 α      in ANC's #5, #4, #2, ...

........................................................................
.............................. CYCLE    2 ..............................
........................................................................
   1    -11.1191494 -0.111191E+02  0.165E+00    0.68       0.0  T
   2    -11.0831881  0.359614E-01  0.221E+00    0.36       1.0  T
   3    -11.1188240 -0.356359E-01  0.118E+00    0.70       1.0  T
   4    -11.1253993 -0.657533E-02  0.562E-01    0.57       1.0  T
   5    -11.1261545 -0.755198E-03  0.152E-01    0.56       1.0  T
   6    -11.1261827 -0.282390E-04  0.179E-02    0.55       2.5  T
   7    -11.1261792  0.358692E-05  0.236E-02    0.55       1.9  T
   8    -11.1261820 -0.285637E-05  0.142E-02    0.55       3.1  T
   9    -11.1261833 -0.127881E-05  0.290E-03    0.55      15.4  T
  10    -11.1261833 -0.285705E-07  0.155E-03    0.55      28.8  T
  11    -11.1261833 -0.123140E-07  0.565E-04    0.55      79.2  T
  12    -11.1261833 -0.139937E-08  0.946E-05    0.55     472.7  T
     SCC iter.                  ...        0 min,  0.001 sec
     gradient                   ...        0 min,  0.001 sec
 * total energy  :   -11.0083093 Eh     change       -0.5372179E-01 Eh
   gradient norm :     0.1069799 Eh/α   predicted    -0.3948437E-01 ( -26.50%)
   displ. norm   :     0.3315110 α      lambda       -0.3145569E-01
   maximum displ.:     0.2293792 α      in ANC's #5, #4, #7, ...

........................................................................
.............................. CYCLE    3 ..............................
........................................................................
   1    -11.1957660 -0.111958E+02  0.208E+00    1.22       0.0  T
   2    -11.1656936  0.300724E-01  0.246E+00    0.76       1.0  T
   3    -11.1934289 -0.277353E-01  0.177E+00    1.18       1.0  T
   4    -11.1950859 -0.165701E-02  0.128E+00    1.16       1.0  T
   5    -11.2026585 -0.757262E-02  0.662E-01    1.04       1.0  T
   6    -11.2027655 -0.106991E-03  0.569E-01    1.04       1.0  T
   7    -11.2032496 -0.484129E-03  0.199E-02    1.05       2.3  T
   8    -11.2032496 -0.156073E-08  0.131E-02    1.05       3.4  T
   9    -11.2032494  0.245261E-06  0.779E-03    1.05       5.7  T
  10    -11.2032498 -0.375678E-06  0.304E-03    1.05      14.7  T
  11    -11.2032498 -0.898019E-08  0.492E-04    1.05      90.9  T
  12    -11.2032498 -0.478826E-09  0.233E-04    1.05     192.1  T
     SCC iter.                  ...        0 min,  0.001 sec
     gradient                   ...        0 min,  0.002 sec
 * total energy  :   -11.0180262 Eh     change       -0.9716880E-02 Eh
   gradient norm :     0.0735587 Eh/α   predicted    -0.1745633E-01 (  79.65%)
   displ. norm   :     0.1260408 α      lambda       -0.6768952E-02
   maximum displ.:     0.0779348 α      in ANC's #2, #4, #5, ...

........................................................................
.............................. CYCLE    4 ..............................
........................................................................
   1    -11.1712969 -0.111713E+02  0.284E+00    1.12       0.0  T
   2    -11.1313438  0.399530E-01  0.361E+00    0.88       1.0  T
   3    -11.1692121 -0.378683E-01  0.219E+00    1.21       1.0  T
   4    -11.1800072 -0.107951E-01  0.542E-01    1.00       1.0  T
   5    -11.1820440 -0.203683E-02  0.237E-01    1.09       1.0  T
   6    -11.1821150 -0.710442E-04  0.113E-01    1.08       1.0  T
   7    -11.1821078  0.722713E-05  0.926E-02    1.08       1.0  T
   8    -11.1821220 -0.141356E-04  0.238E-02    1.08       1.9  T
   9    -11.1821262 -0.428594E-05  0.130E-02    1.08       3.4  T
  10    -11.1821265 -0.228983E-06  0.386E-03    1.08      11.6  T
  11    -11.1821265 -0.325289E-07  0.943E-04    1.08      47.4  T
  12    -11.1821265 -0.947345E-09  0.109E-03    1.08      41.2  T
  13    -11.1821265 -0.131783E-08  0.417E-04    1.08     107.1  T
     SCC iter.                  ...        0 min,  0.002 sec
     gradient                   ...        0 min,  0.001 sec
 * total energy  :   -11.0227615 Eh     change       -0.4735282E-02 Eh
   gradient norm :     0.0396143 Eh/α   predicted    -0.3438244E-02 ( -27.39%)
   displ. norm   :     0.6630387 α      lambda       -0.1915150E-01
   maximum displ.:     0.5145611 α      in ANC's #2, #4, #5, ...

........................................................................
.............................. CYCLE    5 ..............................
........................................................................
   1    -11.0974407 -0.110974E+02  0.360E+00    1.79       0.0  T
   2    -11.0853650  0.120756E-01  0.240E+00    2.24       1.0  T
   3    -11.0638514  0.215137E-01  0.240E+00    1.50       1.0  T
   4    -11.1065671 -0.427157E-01  0.176E-01    1.97       1.0  T
   5    -11.1066315 -0.644511E-04  0.109E-01    1.96       1.0  T
   6    -11.1066329 -0.137217E-05  0.464E-02    1.96       1.0  T
   7    -11.1066403 -0.745393E-05  0.140E-02    1.96       3.2  T
   8    -11.1066414 -0.104853E-05  0.442E-03    1.96      10.1  T
   9    -11.1066413  0.772209E-07  0.357E-03    1.96      12.5  T
  10    -11.1066414 -0.112975E-06  0.413E-04    1.96     108.4  T
  11    -11.1066414 -0.251624E-09  0.165E-04    1.96     271.4  T
     SCC iter.                  ...        0 min,  0.001 sec
     gradient                   ...        0 min,  0.001 sec
 * total energy  :   -11.0053359 Eh     change        0.1742554E-01 Eh
   gradient norm :     0.1940448 Eh/α   predicted    -0.1378543E-01 (-179.11%)
   displ. norm   :     0.3982228 α      lambda       -0.4882482E-01
   maximum displ.:     0.3266141 α      in ANC's #2, #4, #5, ...

........................................................................
.............................. CYCLE    6 ..............................
........................................................................
   1    -11.1675932 -0.111676E+02  0.228E+00    1.78       0.0  T
   2    -11.1628390  0.475413E-02  0.156E+00    1.34       1.0  T
   3    -11.1657373 -0.289822E-02  0.123E+00    1.81       1.0  T
   4    -11.1740286 -0.829136E-02  0.108E-01    1.60       1.0  T
   5    -11.1740711 -0.424835E-04  0.427E-02    1.61       1.0  T
   6    -11.1740604  0.106523E-04  0.382E-02    1.61       1.2  T
   7    -11.1740706 -0.101169E-04  0.133E-02    1.61       3.4  T
   8    -11.1740718 -0.122729E-05  0.415E-03    1.61      10.8  T
   9    -11.1740719 -0.941415E-07  0.151E-03    1.61      29.6  T
  10    -11.1740719 -0.360269E-08  0.133E-04    1.61     337.4  T
  11    -11.1740719 -0.179483E-10  0.641E-05    1.61     698.0  T
     SCC iter.                  ...        0 min,  0.001 sec
     gradient                   ...        0 min,  0.001 sec
 * total energy  :   -11.0315453 Eh     change       -0.2620935E-01 Eh
   gradient norm :     0.0755512 Eh/α   predicted    -0.2828378E-01 (   7.91%)
   displ. norm   :     0.0474360 α      lambda       -0.3216540E-02
   maximum displ.:     0.0323553 α      in ANC's #5, #2, #8, ...

........................................................................
.............................. CYCLE    7 ..............................
........................................................................
   1    -11.1864212 -0.111864E+02  0.262E-01    1.74       0.0  T
   2    -11.1864330 -0.117357E-04  0.167E-01    1.71       1.0  T
   3    -11.1863957  0.372119E-04  0.121E-01    1.75       1.0  T
   4    -11.1864707 -0.749381E-04  0.518E-02    1.71       1.0  T
   5    -11.1864857 -0.150135E-04  0.631E-03    1.72       7.1  T
   6    -11.1864853  0.440400E-06  0.723E-03    1.72       6.2  T
   7    -11.1864857 -0.452769E-06  0.624E-04    1.72      71.7  T
   8    -11.1864857  0.352335E-09  0.628E-04    1.72      71.3  T
     SCC iter.                  ...        0 min,  0.001 sec
     gradient                   ...        0 min,  0.001 sec
 * total energy  :   -11.0341728 Eh     change       -0.2627574E-02 Eh
   gradient norm :     0.0462470 Eh/α   predicted    -0.1611889E-02 ( -38.65%)
   displ. norm   :     0.1403209 α      lambda       -0.4583741E-02
   maximum displ.:     0.1155353 α      in ANC's #2, #5, #8, ...

........................................................................
.............................. CYCLE    8 ..............................
........................................................................
   1    -11.2029566 -0.112030E+02  0.725E-01    1.94       0.0  T
   2    -11.2030825 -0.125919E-03  0.392E-01    1.95       1.0  T
   3    -11.2030559  0.266735E-04  0.153E-01    1.92       1.0  T
   4    -11.2030866 -0.306876E-04  0.597E-02    1.95       1.0  T
   5    -11.2031150 -0.284111E-04  0.175E-02    1.94       2.5  T
   6    -11.2031106  0.433969E-05  0.245E-02    1.94       1.8  T
   7    -11.2031156 -0.494914E-05  0.119E-03    1.94      37.6  T
   8    -11.2031156 -0.148477E-08  0.973E-04    1.94      46.0  T
   9    -11.2031156 -0.407114E-08  0.280E-04    1.94     159.9  T
     SCC iter.                  ...        0 min,  0.001 sec
     gradient                   ...        0 min,  0.001 sec
 * total energy  :   -11.0366106 Eh     change       -0.2437735E-02 Eh
   gradient norm :     0.0093904 Eh/α   predicted    -0.2336997E-02 (  -4.13%)
   displ. norm   :     0.0485279 α      lambda       -0.2654737E-03
   maximum displ.:     0.0457048 α      in ANC's #2, #7, #4, ...

........................................................................
.............................. CYCLE    9 ..............................
........................................................................
   1    -11.2016306 -0.112016E+02  0.235E-01    1.90       0.0  T
   2    -11.2016340 -0.338218E-05  0.130E-01    1.90       1.0  T
   3    -11.2015815  0.524360E-04  0.866E-02    1.92       1.0  T
   4    -11.2016377 -0.561429E-04  0.197E-02    1.90       2.3  T
   5    -11.2016395 -0.182164E-05  0.112E-02    1.90       4.0  T
   6    -11.2016403 -0.784405E-06  0.468E-03    1.90       9.5  T
   7    -11.2016403  0.187172E-07  0.364E-03    1.90      12.3  T
   8    -11.2016404 -0.811269E-07  0.157E-04    1.90     284.2  T
   9    -11.2016404 -0.115570E-10  0.764E-05    1.90     585.7  T
     SCC iter.                  ...        0 min,  0.001 sec
     gradient                   ...        0 min,  0.002 sec
 * total energy  :   -11.0367411 Eh     change       -0.1305250E-03 Eh
   gradient norm :     0.0027358 Eh/α   predicted    -0.1330509E-03 (   1.94%)
   displ. norm   :     0.0231656 α      lambda       -0.4866576E-04
   maximum displ.:     0.0163847 α      in ANC's #1, #4, #7, ...

........................................................................
.............................. CYCLE   10 ..............................
........................................................................
   1    -11.2010753 -0.112011E+02  0.136E-01    1.98       0.0  T
   2    -11.2010774 -0.207288E-05  0.786E-02    1.98       1.0  T
   3    -11.2010507  0.266594E-04  0.788E-02    1.98       1.0  T
   4    -11.2010760 -0.252916E-04  0.350E-02    1.98       1.3  T
   5    -11.2010824 -0.636623E-05  0.165E-02    1.98       2.7  T
   6    -11.2010844 -0.197725E-05  0.460E-03    1.98       9.7  T
   7    -11.2010844  0.317871E-07  0.304E-03    1.98      14.7  T
   8    -11.2010844 -0.734371E-07  0.170E-04    1.98     263.4  T
   9    -11.2010844 -0.189715E-10  0.789E-05    1.98     567.1  T
     SCC iter.                  ...        0 min,  0.001 sec
     gradient                   ...        0 min,  0.001 sec
 * total energy  :   -11.0367498 Eh     change       -0.8696243E-05 Eh
   gradient norm :     0.0026726 Eh/α   predicted    -0.2434608E-04 ( 179.96%)
   displ. norm   :     0.0230382 α      lambda       -0.3058424E-04
   maximum displ.:     0.0225525 α      in ANC's #1, #4, #2, ...

........................................................................
.............................. CYCLE   11 ..............................
........................................................................
   1    -11.2012980 -0.112013E+02  0.939E-02    2.00       0.0  T
   2    -11.2012916  0.643458E-05  0.684E-02    2.00       1.0  T
   3    -11.2012762  0.153817E-04  0.691E-02    2.00       1.0  T
   4    -11.2012971 -0.209156E-04  0.247E-02    2.00       1.8  T
   5    -11.2013016 -0.444840E-05  0.429E-03    2.00      10.4  T
   6    -11.2013016 -0.270954E-07  0.205E-03    2.00      21.8  T
   7    -11.2013016 -0.458346E-08  0.193E-04    2.00     232.2  T
   8    -11.2013016  0.611156E-10  0.155E-04    2.00     288.7  T
     SCC iter.                  ...        0 min,  0.001 sec
     gradient                   ...        0 min,  0.001 sec
 * total energy  :   -11.0367511 Eh     change       -0.1313785E-05 Eh
   gradient norm :     0.0022794 Eh/α   predicted    -0.1529903E-04 (1064.50%)
   displ. norm   :     0.0131784 α      lambda       -0.2376576E-04
   maximum displ.:     0.0099792 α      in ANC's #1, #4, #7, ...

........................................................................
.............................. CYCLE   12 ..............................
........................................................................
   1    -11.2017152 -0.112017E+02  0.737E-02    1.96       0.0  T
   2    -11.2017160 -0.804661E-06  0.428E-02    1.95       1.0  T
   3    -11.2017100  0.602617E-05  0.422E-02    1.96       1.1  T
   4    -11.2017161 -0.611999E-05  0.213E-02    1.95       2.1  T
   5    -11.2017181 -0.204887E-05  0.108E-02    1.95       4.1  T
   6    -11.2017191 -0.905253E-06  0.255E-03    1.95      17.5  T
   7    -11.2017190  0.182930E-07  0.217E-03    1.96      20.6  T
   8    -11.2017191 -0.323220E-07  0.963E-05    1.95     464.5  T
   9    -11.2017191 -0.581579E-11  0.435E-05    1.95    1029.1  T
     SCC iter.                  ...        0 min,  0.001 sec
     gradient                   ...        0 min,  0.001 sec
 * total energy  :   -11.0367606 Eh     change       -0.9494465E-05 Eh
   gradient norm :     0.0007503 Eh/α   predicted    -0.1188351E-04 (  25.16%)
   displ. norm   :     0.0050948 α      lambda       -0.2118958E-05
   maximum displ.:     0.0045133 α      in ANC's #4, #1, #7, ...

........................................................................
.............................. CYCLE   13 ..............................
........................................................................
   1    -11.2014807 -0.112015E+02  0.352E-02    1.98       0.0  T
   2    -11.2014812 -0.539153E-06  0.186E-02    1.98       2.4  T
   3    -11.2014808  0.399682E-06  0.132E-02    1.98       3.4  T
   4    -11.2014807  0.138808E-06  0.994E-03    1.98       4.5  T
   5    -11.2014814 -0.701326E-06  0.255E-03    1.98      17.6  T
   6    -11.2014814 -0.480295E-07  0.108E-03    1.98      41.5  T
   7    -11.2014814 -0.213864E-09  0.705E-04    1.98      63.4  T
   8    -11.2014814 -0.336280E-08  0.353E-05    1.98    1265.8  T
     SCC iter.                  ...        0 min,  0.001 sec
     gradient                   ...        0 min,  0.001 sec
 * total energy  :   -11.0367611 Eh     change       -0.5079766E-06 Eh
   gradient norm :     0.0005964 Eh/α   predicted    -0.1060651E-05 ( 108.80%)
   displ. norm   :     0.0022286 α      lambda       -0.6378384E-06
   maximum displ.:     0.0015326 α      in ANC's #4, #1, #7, ...

   *** GEOMETRY OPTIMIZATION CONVERGED AFTER 13 ITERATIONS ***

------------------------------------------------------------------------
 total energy gain   :        -0.0821736 Eh      -51.5647 kcal/mol
 total RMSD          :         0.4319307 a0        0.2286 Å
 total power (kW/mol):       -16.5959063 (step)-4254.6046 (real)
------------------------------------------------------------------------

 ANCopt (total)                0 d,  0 h,  0 min,  0.051 sec
 optimizer setup                ...        0 min,  0.000 sec (  0.116%)
 model hessian                  ...        0 min,  0.000 sec (  0.183%)
 ANC generation                 ...        0 min,  0.000 sec (  0.093%)
 coordinate transformation      ...        0 min,  0.000 sec (  0.046%)
 single point calculation       ...        0 min,  0.050 sec ( 97.680%)
 optimization log               ...        0 min,  0.000 sec (  0.623%)
 hessian update                 ...        0 min,  0.000 sec (  0.050%)
 rational function              ...        0 min,  0.000 sec (  0.508%)

================
 final structure:
================
5
 xtb: 6.2.2 (9d81278992624c895f80dd42a50cac0aa55982e2)
N         1.34623360172921    0.04889694730508    0.05816357009286
C         0.40169964866622   -0.86302931334319    0.01702034509333
C        -1.01872783496868   -0.70503444385075   -0.04382550616009
C         0.33806675348869    0.88998156396312    0.01507121879900
C        -1.06727316891543    0.62918524592575   -0.04643062782509

 Bond Distances (Angstroems)
 ---------------------------
N1-C2=1.3136         N1-C4=1.3137         C2-N1=1.3136         C2-C3=1.4305         C2-C4=1.7542         C3-C2=1.4305         
C3-C5=1.3351         C4-N1=1.3137         C4-C2=1.7542         C4-C5=1.4307         C5-C3=1.3351         C5-C4=1.4307         
 C  C  Rav=1.4876 sigma=0.1588  Rmin=1.3351  Rmax=1.7542     4
 N  C  Rav=1.3136 sigma=0.0000  Rmin=1.3136  Rmax=1.3137     2

 selected bond angles (degree)
 --------------------
C4-N1-C2= 83.78                C3-C2-N1=129.69                C4-C2-N1= 48.11                C4-C2-C3= 81.58                
C5-C3-C2= 98.43                C2-C4-N1= 48.11                C5-C4-N1=129.69                C5-C4-C2= 81.58                
C4-C5-C3= 98.42                

 selected dihedral angles (degree)
 ---------------------------------
C3-C2-N1-C4=  0.00            C5-C3-C2-N1=  0.06            C5-C3-C2-C4=  0.05            C5-C4-N1-C2=359.96            
N1-C4-C2-C3=179.99            C5-C4-C2-N1=179.97            C5-C4-C2-C3=359.95            C4-C5-C3-C2=359.94            
C3-C5-C4-N1=  0.08            C3-C5-C4-C2=  0.05            
           -------------------------------------------------
          |                Final Singlepoint                |
           -------------------------------------------------

          ...................................................
          :                      SETUP                      :
          :.................................................:
          :  # basis functions                  20          :
          :  # atomic orbitals                  20          :
          :  # shells                           10          :
          :  # electrons                        21          :
          :  max. iterations                   250          :
          :  Hamiltonian                  GFN2-xTB          :
          :  restarted?                      false          :
          :  GBSA solvation                  false          :
          :  PC potential                    false          :
          :  electronic temp.          300.0000000     K    :
          :  accuracy                    1.0000000          :
          :  -> integral cutoff          0.2500000E+02      :
          :  -> integral neglect         0.1000000E-07      :
          :  -> SCF convergence          0.1000000E-05 Eh   :
          :  -> wf. convergence          0.1000000E-03 e    :
          :  Broyden damping             0.4000000          :
          ...................................................

 iter      E             dE          RMSdq      gap      omega  full diag
   1    -11.2014814 -0.112015E+02  0.587E-06    1.98       0.0  T
   2    -11.2014814  0.710543E-14  0.581E-06    1.98    7696.3  T
   3    -11.2014814 -0.834888E-13  0.308E-06    1.98   14499.2  T

   *** convergence criteria satisfied after 3 iterations ***

         #    Occupation            Energy/Eh            Energy/eV
      -------------------------------------------------------------
         1        2.0000           -0.7455970             -20.2887
       ...           ...                  ...                  ...
         6        2.0000           -0.5762900             -15.6817
         7        2.0000           -0.5058943             -13.7661
         8        2.0000           -0.4594819             -12.5031
         9        2.0000           -0.4510126             -12.2727
        10        1.0000           -0.4150157             -11.2932
        11        1.0000           -0.4110898             -11.1863
        12        1.0000           -0.3818974             -10.3920 (HOMO)
        13                         -0.3092127              -8.4141 (LUMO)
        14                         -0.2581923              -7.0258
        15                         -0.2043806              -5.5615
        16                          0.1137237               3.0946
        17                          0.1426453               3.8816
       ...                                ...                  ...
        20                          0.5407780              14.7153
      -------------------------------------------------------------
                  HL-Gap            0.0726848 Eh            1.9779 eV
             Fermi-level           -0.3892883 Eh          -10.5931 eV

 SCC (total)                   0 d,  0 h,  0 min,  0.003 sec
 SCC setup                      ...        0 min,  0.000 sec (  1.293%)
 Dispersion                     ...        0 min,  0.000 sec (  0.457%)
 integral evaluation            ...        0 min,  0.001 sec ( 41.123%)
 zeroth order Hamiltonian       ...        0 min,  0.000 sec (  0.465%)
 iterations                     ...        0 min,  0.000 sec ( 11.073%)
 molecular gradient             ...        0 min,  0.001 sec ( 43.095%)
 printout                       ...        0 min,  0.000 sec (  2.185%)

         :::::::::::::::::::::::::::::::::::::::::::::::::::::
         ::                     SUMMARY                     ::
         :::::::::::::::::::::::::::::::::::::::::::::::::::::
         :: total energy             -11.036761112585 Eh    ::
         :: gradient norm              0.000597820181 Eh/a0 ::
         :: HOMO-LUMO gap              1.977852968000 eV    ::
         ::.................................................::
         :: SCC energy               -11.201481440939 Eh    ::
         :: -> isotropic ES            0.003481217231 Eh    ::
         :: -> anisotropic ES          0.002431909111 Eh    ::
         :: -> anisotropic XC          0.008535844674 Eh    ::
         :: -> dispersion             -0.002866234489 Eh    ::
         :: repulsion energy           0.164720298350 Eh    ::
         :: add. restraining           0.000000000000 Eh    ::
         :::::::::::::::::::::::::::::::::::::::::::::::::::::

           ------------------------------------------------- 
          |                Numerical Hessian                |
           ------------------------------------------------- 
step length          :   0.00500
SCC accuracy         :   0.30000
Hessian scale factor :   1.00000
frozen atoms in %    :   0.00000    0
RMS gradient         :   0.00060
estimated CPU  time      0.00 min
estimated wall time      0.00 min

writing file <hessian>.

 projected vibrational frequencies (cm-1)
eigval :       -0.00    -0.00    -0.00    -0.00     0.00     0.00
eigval :     -306.92   440.07   459.80   616.28   773.18  1008.22
eigval :     1105.50  1484.15  1602.50
           -------------------------------------------------
          |                Property Printout                |
           -------------------------------------------------

    * Orbital Energies and Occupations

         #    Occupation            Energy/Eh            Energy/eV
      -------------------------------------------------------------
         1        2.0000           -0.7455970             -20.2887
         2        2.0000           -0.6829599             -18.5843
         3        2.0000           -0.6415632             -17.4578
         4        2.0000           -0.5950006             -16.1908
         5        2.0000           -0.5791571             -15.7597
         6        2.0000           -0.5762901             -15.6817
         7        2.0000           -0.5058943             -13.7661
         8        2.0000           -0.4594819             -12.5031
         9        2.0000           -0.4510126             -12.2727
        10        1.0000           -0.4150157             -11.2932
        11        1.0000           -0.4110898             -11.1863
        12        1.0000           -0.3818974             -10.3920 (HOMO)
        13                         -0.3092127              -8.4141 (LUMO)
        14                         -0.2581923              -7.0258
        15                         -0.2043805              -5.5615
        16                          0.1137237               3.0946
        17                          0.1426453               3.8816
        18                          0.3855607              10.4916
        19                          0.4051991              11.0260
        20                          0.5407780              14.7153
      -------------------------------------------------------------
                  HL-Gap            0.0726847 Eh            1.9779 eV
             Fermi-level           -0.3892884 Eh          -10.5931 eV

     #   Z        covCN         q      C6AA      α(0)
     1   7 N      1.824    -0.134    24.681     7.361
     2   6 C      3.078     0.100    25.705     8.312
     3   6 C      2.263    -0.033    30.829     9.001
     4   6 C      3.078     0.100    25.707     8.312
     5   6 C      2.263    -0.033    30.829     9.001

 Mol. C6AA /au·bohr⁶  :        686.248792
 Mol. C8AA /au·bohr⁸  :      18908.204162
 Mol. α(0) /au        :         41.988039


Wiberg/Mayer (AO) data.
largest (>0.10) Wiberg bond orders for each atom
          total WBO             WBO to atom ...
     1  N   2.935        C    2 1.339    C    4 1.339    C    5 0.128    C    3 0.128
     2  C   3.058        N    1 1.339    C    3 1.065    C    4 0.529    C    5 0.125
     3  C   2.941        C    5 1.623    C    2 1.065    N    1 0.128    C    4 0.125
     4  C   3.058        N    1 1.339    C    5 1.065    C    2 0.529    C    3 0.125
     5  C   2.941        C    3 1.623    C    4 1.065    N    1 0.128    C    2 0.125

MOs/occ written to file <molden.input>


molecular dipole:
                 x           y           z       tot (Debye)
 q only:       -0.071      -0.003      -0.003
   full:       -0.251      -0.009      -0.011       0.638
molecular quadrupole (traceless):
                xx          xy          yy          xz          yz          zz
 q only:       -1.246      -0.080       0.957      -0.066      -0.003       0.290
  q+dip:       -2.598      -0.149       1.480      -0.161      -0.006       1.118
   full:       -3.922      -0.188       1.233      -0.286      -0.007       2.690

           -------------------------------------------------
          |                Geometry Summary                 |
           -------------------------------------------------

      molecular mass/u    :       62.0496468
   center of mass at/Å    :        0.0433045       0.0015727       0.0018706
  moments of inertia/u·Å² :        0.2918372E+02   0.5486137E+02   0.8404508E+02
rotational constants/cm⁻¹ :        0.5776382E+00   0.3072769E+00   0.2005785E+00

 * 3 selected distances

     #   Z        #   Z                                     value/Å
     1   7 N      2   6 C                                 1.3135626 (min)
     1   7 N      4   6 C                                 1.3136517
     3   6 C      5   6 C                                 1.3351051 (max)

 * 2 distinct bonds (by element types)

   Z      Z             #   av. dist./Å        max./Å        min./Å
   6 C    6 C           1     1.3351051     1.3351051     1.3351051
   6 C    7 N           2     1.3136071     1.3136517     1.3135626

           -------------------------------------------------
          |               Frequency Printout                |
           -------------------------------------------------
 projected vibrational frequencies (cm-1)
eigval :       -0.00    -0.00    -0.00    -0.00     0.00     0.00
eigval :     -306.92   440.07   459.80   616.28   773.18  1008.22
eigval :     1105.50  1484.15  1602.50
 reduced masses (amu)
   1: 12.05   2: 12.08   3: 12.30   4: 12.20   5: 13.07   6: 13.15   7: 12.05   8: 12.69
   9: 12.01  10: 12.47  11: 12.90  12: 12.06  13: 12.30  14: 12.25  15: 12.56
 IR intensities (amu)
   1:  0.05   2:  0.02   3:  0.01   4:  0.04   5:  0.05   6:  0.06   7:  0.82   8:  0.40
   9:  0.04  10:  0.26  11:  1.00  12:  0.09  13:  0.32  14:  0.20  15:  1.13
Molecule has the following symmetry elements: (C2) 2*(sigma) 
It seems to be the C2v point group
 Raman intensities (amu)
   1:  0.00   2:  0.00   3:  0.00   4:  0.00   5:  0.00   6:  0.00   7:  0.00   8:  0.00
   9:  0.00  10:  0.00  11:  0.00  12:  0.00  13:  0.00  14:  0.00  15:  0.00
 output can be read by thermo (or use thermo option).
 writing <g98.out> molden fake output.
 recommended (thermochemical) frequency scaling factor: 1.0
           -------------------------------------------------
          |             Thermodynamic Functions             |
           -------------------------------------------------

c2v symmetry found (for desy threshold:  0.10E+00) used in thermo

          ...................................................
          :                      SETUP                      :
          :.................................................:
          :  # frequencies                           8      :
          :  # imaginary freq.                       1      :
          :  linear?                             false      :
          :  only rotor calc.                    false      :
          :  symmetry                              c2v      :
          :  rotational number                       2      :
          :  scaling factor                  1.0000000      :
          :  rotor cutoff                   50.0000000 cm⁻¹ :
          :  imag. cutoff                  -20.0000000 cm⁻¹ :
          :.................................................:

    mode    ω/cm⁻¹     T·S(HO)/kcal·mol⁻¹    T·S(FR)/kcal·mol⁻¹   T·S(vib)
   ------------------------------------------------------------------------
   ------------------------------------------------------------------------

   temp. (K)  partition function   enthalpy   heat capacity  entropy
                                   cal/mol     cal/K/mol   cal/K/mol   J/K/mol
 298.15  VIB   1.40                  523.499      5.190      2.418
         ROT  0.140E+05              888.752      2.981     21.954
         INT  0.195E+05             1412.251      8.171     24.372
         TR   0.473E+27             1481.254      4.968     38.278
         TOT                        2893.5050    13.1395    62.6503   262.1289

   temp. (K)  partition function   enthalpy   heat capacity  entropy
                                   cal/mol     cal/K/mol   cal/K/mol   J/K/mol
 120.00  VIB   1.01                   13.109      0.617      0.129
         ROT  0.358E+04              357.707      2.981     19.242
         INT  0.361E+04              370.816      3.598     19.371
         TR   0.121E+27              596.178      4.968     33.759
         TOT                         966.9941     8.5659    53.1293   222.2930

   temp. (K)  partition function   enthalpy   heat capacity  entropy
                                   cal/mol     cal/K/mol   cal/K/mol   J/K/mol
 100.00  VIB   1.00                    4.289      0.285      0.049
         ROT  0.272E+04              298.089      2.981     18.698
         INT  0.273E+04              302.378      3.266     18.748
         TR   0.919E+26              496.815      4.968     32.853
         TOT                         799.1929     8.2340    51.6009   215.8983

   temp. (K)  partition function   enthalpy   heat capacity  entropy
                                   cal/mol     cal/K/mol   cal/K/mol   J/K/mol
  80.00  VIB   1.00                    0.826      0.084      0.012
         ROT  0.195E+04              238.471      2.981     18.033
         INT  0.195E+04              239.297      3.065     18.044
         TR   0.657E+26              397.452      4.968     31.745
         TOT                         636.7493     8.0335    49.7898   208.3205

   temp. (K)  partition function   enthalpy   heat capacity  entropy
                                   cal/mol     cal/K/mol   cal/K/mol   J/K/mol
  60.00  VIB   1.00                    0.055      0.010      0.001
         ROT  0.126E+04              178.853      2.981     17.175
         INT  0.126E+04              178.908      2.991     17.176
         TR   0.427E+26              298.089      4.968     30.317
         TOT                         476.9974     7.9589    47.4930   198.7107

   temp. (K)  partition function   enthalpy   heat capacity  entropy
                                   cal/mol     cal/K/mol   cal/K/mol   J/K/mol
  40.00  VIB   1.00                    0.000      0.000     -0.000
         ROT   689.                  119.236      2.981     15.967
         INT   689.                  119.236      2.981     15.966
         TR   0.232E+26              198.726      4.968     28.303
         TOT                         317.9619     7.9491    44.2698   185.2248

   temp. (K)  partition function   enthalpy   heat capacity  entropy
                                   cal/mol     cal/K/mol   cal/K/mol   J/K/mol
  20.00  VIB   1.00                    0.000      0.000     -0.001
         ROT   243.                   59.618      2.981     13.900
         INT   243.                   59.618      2.981     13.900
         TR   0.822E+25               99.363      4.968     24.861
         TOT                         158.9808     7.9490    38.7613   162.1775

   temp. (K)  partition function   enthalpy   heat capacity  entropy
                                   cal/mol     cal/K/mol   cal/K/mol   J/K/mol
  10.00  VIB   1.00                    0.000      0.000     -0.001
         ROT   86.1                   29.809      2.981     11.834
         INT   86.1                   29.809      2.981     11.834
         TR   0.290E+25               49.681      4.968     21.419
         TOT                          79.4904     7.9490    33.2529   139.1302

       T/K    H(0)-H(T)+PV         H(T)/Eh          T*S/Eh         G(T)/Eh
   ------------------------------------------------------------------------
    298.15    0.461109E-02    0.216739E-01    0.297672E-01   -0.809330E-02
    120.00    0.154100E-02    0.186038E-01    0.101600E-01    0.844376E-02
    100.00    0.127360E-02    0.183364E-01    0.822313E-02    0.101133E-01
     80.00    0.101472E-02    0.180775E-01    0.634761E-02    0.117299E-01
     60.00    0.760144E-03    0.178229E-01    0.454110E-02    0.132818E-01
     40.00    0.506704E-03    0.175695E-01    0.282194E-02    0.147476E-01
     20.00    0.253352E-03    0.173161E-01    0.123540E-02    0.160807E-01
     10.00    0.126676E-03    0.171895E-01    0.529919E-03    0.166596E-01 (used)
   ------------------------------------------------------------------------

         :::::::::::::::::::::::::::::::::::::::::::::::::::::
         ::                  THERMODYNAMIC                  ::
         :::::::::::::::::::::::::::::::::::::::::::::::::::::
         :: total free energy         -11.020101561433 Eh   ::
         ::.................................................::
         :: total energy              -11.036761112602 Eh   ::
         :: zero point energy           0.017062794011 Eh   ::
         :: G(RRHO) w/o ZPVE           -0.000403242842 Eh   ::
         :: G(RRHO) contrib.            0.016659551169 Eh   ::
         :::::::::::::::::::::::::::::::::::::::::::::::::::::
imag cut-off (cm-1) :    5.00
 found            1  significant imaginary frequency
 writing imag mode distorted coords to xtbhess.xyz
 for further optimization.

optimized geometry written to: xtbopt.xyz


           -------------------------------------------------
          | TOTAL ENERGY              -11.036761112602 Eh   |
          | TOTAL ENTHALPY            -11.019571642575 Eh   |
          | TOTAL FREE ENERGY         -11.020101561433 Eh   |
          | GRADIENT NORM               0.000597840986 Eh/α |
          | HOMO-LUMO GAP               1.977852245557 eV   |
           -------------------------------------------------

------------------------------------------------------------------------
 * finished run on 2020/05/12 at 11:44:08.399     
------------------------------------------------------------------------
 total:
 * wall-time:     0 d,  0 h,  0 min,  0.179 sec
 *  cpu-time:     0 d,  0 h,  0 min,  0.179 sec
 * ratio c/w:     0.999 speedup
 SCF:
 * wall-time:     0 d,  0 h,  0 min,  0.005 sec
 *  cpu-time:     0 d,  0 h,  0 min,  0.005 sec
 * ratio c/w:     0.996 speedup
 ANC optimizer:
 * wall-time:     0 d,  0 h,  0 min,  0.054 sec
 *  cpu-time:     0 d,  0 h,  0 min,  0.054 sec
 * ratio c/w:     0.999 speedup
 numerical hessian:
 * wall-time:     0 d,  0 h,  0 min,  0.102 sec
 *  cpu-time:     0 d,  0 h,  0 min,  0.102 sec
 * ratio c/w:     0.999 speedup

