[Molden Format]
[Title]
[Atoms] AU
C      1     6  0.10634563736934E+01  0.73891866434027E+00  0.49169193896411E-01
N      2     7 -0.12163104096343E+01  0.67988938020413E+00 -0.11502382883468E+00
H      3     1  0.25929205518804E+01 -0.60317039859252E+00  0.21260656963133E+00
H      4     1 -0.24400665159395E+01 -0.81563764595188E+00 -0.14675193469307E+00
[GTO]
           1 0
 s           4   1.0000000000000000     
   51.049363095579913      -0.16312063210127389     
   8.7911227406887544      -0.19911024581000730     
  0.70640422258929825       0.31882047753655751     
  0.26922813413411617       0.12706504184240380     
 p           4   1.0000000000000000     
   5.8263656140800002       0.73716451545209605     
   1.5106896018720002       0.68216371614850257     
  0.53256483288000001       0.35783053929253711     
  0.21202323690600003        5.3983030275847881E-002

           2 0
 s           4   1.0000000000000000     
   63.594024466941008      -0.19234388414721629     
   10.951417231523665      -0.23478107924953728     
  0.87999310257376984       0.37593753901700888     
  0.33538715296521110       0.14982889271862770     
 p           4   1.0000000000000000     
   7.2965040481495080       0.97658666315667420     
   1.8918745450712575       0.90372226730345739     
  0.66694432110824120       0.47404958461536373     
  0.26552202674130870        7.1516067715011844E-002

           3 0
 s           3   1.0000000000000000     
   3.3702276975336001       0.27359110588908298     
  0.61389118221497996       0.26460540653860526     
  0.16614291148415999        8.2465947534082318E-002

           4 0
 s           3   1.0000000000000000     
   3.3702276975336001       0.27359110588908298     
  0.61389118221497996       0.26460540653860526     
  0.16614291148415999        8.2465947534082318E-002

[MO]
Sym=     1a
Ene=  -0.63822809365761779     
Spin= Alpha
Occup=     2.00000000
           1  0.41737722747013634     
           2 -0.21008336359549890     
           3  -3.0115224381016083E-002
           4  -1.4179424166718779E-002
           5  0.55513183690686496     
           6  0.18470222690416876     
           7  -5.0086371001376313E-002
           8   1.5417275484909135E-002
           9   7.9157035383230309E-002
          10  0.12913545580541064     
Sym=     2a
Ene=  -0.56357732514392633     
Spin= Alpha
Occup=     2.00000000
           1  0.42062188967221897     
           2  0.11348691438593334     
           3   1.6182540205940319E-002
           4   7.6651159490172330E-003
           5 -0.33284943827581714     
           6  0.36698783806729190     
           7  0.19474511310859338     
           8   1.9293690542306719E-002
           9  0.23734137123206600     
          10 -0.35947209822997628     
Sym=     3a
Ene=  -0.52748670541486153     
Spin= Alpha
Occup=     2.00000000
           1 -0.13835154781213843     
           2 -0.33478159161765086     
           3  0.30066613611261905     
           4  -3.6037392735235020E-002
           5  0.14062843271676007     
           6  0.18906925283706777     
           7  0.37919456719925687     
           8  -8.1051436017711711E-004
           9 -0.39639989865510877     
          10 -0.24793572300673689     
Sym=     4a
Ene=  -0.47618711029773275     
Spin= Alpha
Occup=     2.00000000
           1  -4.1496131499696708E-006
           2  -3.8074504258794273E-002
           3   2.0098604079379245E-002
           4  0.52140437381472182     
           5   5.4026382465866955E-006
           6  -5.3699659215248399E-002
           7   2.8346251668545281E-002
           8  0.73535298735674348     
           9   1.0212073041783782E-006
          10  -1.1308449699910997E-006
Sym=     5a
Ene=  -0.43866657298957912     
Spin= Alpha
Occup=     2.00000000
           1 -0.15560473606738590     
           2 -0.33131861036603238     
           3 -0.36221222769114547     
           4  -1.0230548192849666E-002
           5 -0.27594771869524193     
           6  0.45480807089531311     
           7 -0.54186058721634589     
           8   5.4100453359022437E-002
           9 -0.21197847064107891     
          10  -7.7533863967417932E-002
Sym=     6a
Ene=  -0.30970968111456126     
Spin= Alpha
Occup=     1.00000000
           1  0.38879513659094078     
           2  0.19896914965947596     
           3  0.70496592171682004     
           4  -1.2644067019864655E-002
           5 -0.32987176966058895     
           6  0.13844743179109911     
           7 -0.44321793587190711     
           8   2.7199095587197002E-002
           9 -0.29244134658461046     
          10  0.33515233928895904     
Sym=     7a
Ene=  -0.22962669229912450     
Spin= Alpha
Occup=     0.00000000
           1   5.2055121830740902E-006
           2   6.4482590956074060E-002
           3  -3.4041689102355964E-002
           4 -0.88300950334255091     
           5   4.6690648711018431E-006
           6  -5.2193589307038935E-002
           7   2.7549001289444368E-002
           8  0.71471985369966695     
           9  -3.7872680024334754E-006
          10  -4.5130866870841160E-006
Sym=     8a
Ene=   0.11657722060657766     
Spin= Alpha
Occup=     0.00000000
           1  -4.7476907687037308E-002
           2 -0.33545916481493920     
           3 -0.13844762407307806     
           4  -1.9163223519043839E-002
           5 -0.79657696240399345     
           6  0.30337334629222279     
           7  0.67257266585107489     
           8  -3.7642093904414749E-003
           9  0.16308071445701672     
          10   1.0578539393456012     
Sym=     9a
Ene=   0.18794592015294051     
Spin= Alpha
Occup=     0.00000000
           1  0.89825550560070300     
           2  0.28725963016048045     
           3 -0.66158510681218707     
           4   4.6488486557842559E-002
           5 -0.16456395371696309     
           6 -0.32682393893485689     
           7  0.23073830395241901     
           8  -3.2762326238757251E-002
           9  -1.0539185777313997     
          10   2.6122246149666895E-002
Sym=    10a
Ene=   0.76587365876911995     
Spin= Alpha
Occup=     0.00000000
           1  0.57965877368357932     
           2  -1.1593951116899912     
           3  0.19375336373312169     
           4  -9.2130348407293172E-002
           5 -0.65928119551159547     
           6  -1.0299427283818527     
           7 -0.24194057494266272     
           8  -6.5881567955583295E-002
           9  0.42644449260753176     
          10 -0.36862192255078052     
