$hessian                                                                        
        1.0730364419  -0.0665621701   0.0776461292  -0.8616256022  -0.0295879317
       -0.0585846691  -0.1577161284   0.1222757333  -0.0147279365  -0.0536947113
       -0.0261256315  -0.0043335236
       -0.0665621701   0.1748336230  -0.0098775209  -0.0238619634  -0.0215601289
       -0.0025911808   0.1171767707  -0.1391646507   0.0131308767  -0.0267526372
       -0.0141088433  -0.0006621750
        0.0776461292  -0.0098775209   0.0507953146  -0.0588074011  -0.0030047893
       -0.0477697599  -0.0145315270   0.0135015246  -0.0221298740  -0.0043072012
       -0.0006192144   0.0191043194
       -0.8616256022  -0.0238619634  -0.0588074011   1.0112674505   0.1443296214
        0.0651745809  -0.0365532187   0.0143339537  -0.0046861804  -0.1130886295
       -0.1348016117  -0.0016809994
       -0.0295879317  -0.0215601289  -0.0030047893   0.1443296214   0.2328268384
        0.0031986426   0.0175785829  -0.0071129218   0.0023271285  -0.1323202726
       -0.2041537877  -0.0025209818
       -0.0585846691  -0.0025911808  -0.0477697599   0.0651745809   0.0031986426
        0.0471041708  -0.0048120166   0.0020939229   0.0195865958  -0.0017778952
       -0.0027013848  -0.0189210066
       -0.1577161284   0.1171767707  -0.0145315270  -0.0365532187   0.0175785829
       -0.0048120166   0.1939421333  -0.1372310251   0.0187632790   0.0003272138
        0.0024756715   0.0005802645
        0.1222757333  -0.1391646507   0.0135015246   0.0143339537  -0.0071129218
        0.0020939229  -0.1372310251   0.1348374715  -0.0148558495   0.0006213381
        0.0114401010  -0.0007395980
       -0.0147279365   0.0131308767  -0.0221298740  -0.0046861804   0.0023271285
        0.0195865958   0.0187632790  -0.0148558495   0.0113792962   0.0006508379
       -0.0006021556  -0.0088360179
       -0.0536947113  -0.0267526372  -0.0043072012  -0.1130886295  -0.1323202726
       -0.0017778952   0.0003272138   0.0006213381   0.0006508379   0.1664561270
        0.1584515717   0.0054342585
       -0.0261256315  -0.0141088433  -0.0006192144  -0.1348016117  -0.2041537877
       -0.0027013848   0.0024756715   0.0114401010  -0.0006021556   0.1584515717
        0.2068225300   0.0039227548
       -0.0043335236  -0.0006621750   0.0191043194  -0.0016809994  -0.0025209818
       -0.0189210066   0.0005802645  -0.0007395980  -0.0088360179   0.0054342585
        0.0039227548   0.0086527051
