 Entering Gaussian System
 *********************************************
 Gaussian 98:
 frequency output generated by the xtb code
 *********************************************
                         Standard orientation:
 --------------------------------------------------------------------
  Center     Atomic     Atomic              Coordinates (Angstroms)
  Number     Number      Type              X           Y           Z
 --------------------------------------------------------------------
    1          6             0        0.562757    0.391019    0.026019
    2          7             0       -0.643644    0.359782   -0.060868
    3          1             0        1.372115   -0.319184    0.112507
    4          1             0       -1.291228   -0.431617   -0.077658
 --------------------------------------------------------------------
     1 basis functions        1 primitive gaussians
     1 alpha electrons        1 beta electrons

 Harmonic frequencies (cm**-1), IR intensities (KM/Mole),
 Raman scattering activities (A**4/amu), Raman depolarization ratios,
 reduced masses (AMU), force constants (mDyne/A) and normal coordinates:
                      1                      2                      3
                        a                      a                      a 
 Frequencies --   803.9622               858.7033               931.7954
 Red. masses --     4.2950                 4.8302                 1.6113
 Frc consts  --     0.0000                 0.0000                 0.0000
 IR Inten    --     0.2358                 0.6321                 0.3232
 Raman Activ --     0.0000                 0.0000                 0.0000
 Depolar     --     0.0000                 0.0000                 0.0000
 Atom AN      X      Y      Z        X      Y      Z        X      Y      Z
   1   6    -0.03   0.02   0.39    -0.08  -0.43   0.01    -0.00   0.05  -0.00
   2   7     0.03  -0.01  -0.35    -0.14   0.33  -0.02    -0.07   0.20  -0.01
   3   1     0.04  -0.02  -0.62     0.49   0.53   0.02    -0.35  -0.40  -0.01
   4   1    -0.04   0.02   0.58     0.31  -0.25   0.03     0.64  -0.51   0.07
                      4                      5                      6
                        a                      a                      a 
 Frequencies --  1921.6350              2940.7860              3103.3630
 Red. masses --    12.3915                 1.9431                 1.7878
 Frc consts  --     0.0000                 0.0000                 0.0000
 IR Inten    --     0.7463                 0.3677                 0.1394
 Raman Activ --     0.0000                 0.0000                 0.0000
 Depolar     --     0.0000                 0.0000                 0.0000
 Atom AN      X      Y      Z        X      Y      Z        X      Y      Z
   1   6    -0.71  -0.06  -0.05    -0.24   0.16  -0.02     0.00  -0.03   0.00
   2   7     0.67   0.02   0.05     0.01  -0.00   0.00    -0.16  -0.18  -0.00
   3   1    -0.15   0.12  -0.02     0.74  -0.60   0.08    -0.05   0.07  -0.01
   4   1     0.10   0.04   0.01     0.07   0.06   0.00     0.63   0.73   0.02
