[Molden Format]
[Title]
[Atoms] AU
C      1     6 -0.47916803810142E-03  0.51169491876314E+00 -0.89139414116192E-06
H      2     1  0.18541948842288E+01 -0.25411040968719E+00 -0.60288763983549E-05
H      3     1 -0.18537157161808E+01 -0.25758261935000E+00  0.69202672413293E-05
[GTO]
           1 0
 s           4   1.0000000000000000     
   51.049363095579913      -0.16312063210127389     
   8.7911227406887544      -0.19911024581000730     
  0.70640422258929825       0.31882047753655751     
  0.26922813413411617       0.12706504184240380     
 p           4   1.0000000000000000     
   5.8263656140800002       0.73716451545209605     
   1.5106896018720002       0.68216371614850257     
  0.53256483288000001       0.35783053929253711     
  0.21202323690600003        5.3983030275847881E-002

           2 0
 s           3   1.0000000000000000     
   3.3702276975336001       0.27359110588908298     
  0.61389118221497996       0.26460540653860526     
  0.16614291148415999        8.2465947534082318E-002

           3 0
 s           3   1.0000000000000000     
   3.3702276975336001       0.27359110588908298     
  0.61389118221497996       0.26460540653860526     
  0.16614291148415999        8.2465947534082318E-002

[MO]
Sym=     1a
Ene=  -0.56705744604560371     
Spin= Alpha
Occup=     2.00000000
           1  0.64639458889123047     
           2   6.9403854995780297E-005
           3  -7.4162450150872750E-002
           4   1.2890965855729441E-007
           5  0.30627765356302378     
           6  0.30627773302758227     
Sym=     2a
Ene=  -0.48592342117794401     
Spin= Alpha
Occup=     2.00000000
           1  -7.6989850910558766E-008
           2 -0.54760583668491203     
           3  -5.1280025077177357E-004
           4   1.9121324351226685E-006
           5 -0.42197652471803032     
           6  0.42197649674017368     
Sym=     3a
Ene=  -0.35524698547441197     
Spin= Alpha
Occup=     1.00000000
           1 -0.38076454791683040     
           2   8.4484811729045831E-004
           3 -0.90218076347009557     
           4   1.5733968102117158E-006
           5  0.14393114656494824     
           6  0.14393113909394006     
Sym=     4a
Ene=  -0.33362514701526569     
Spin= Alpha
Occup=     1.00000000
           1   7.4634741964149868E-010
           2   3.4898402592314709E-006
           3   1.7469326736119644E-006
           4   1.0000000000418201     
           5   3.1453360346915709E-010
           6  -4.7776381338209474E-010
Sym=     5a
Ene=   0.12000968358069679     
Spin= Alpha
Occup=     0.00000000
           1   1.0033929888315944     
           2   4.8683809747311060E-004
           3 -0.51993511978373841     
           4   9.0585645156918981E-007
           5 -0.78717112188812255     
           6 -0.78717117062541153     
Sym=     6a
Ene=   0.37324528303554499     
Spin= Alpha
Occup=     0.00000000
           1  -3.2245942522272963E-008
           2  -1.1811506108065026     
           3  -1.1060561453142528E-003
           4   4.1243617802766830E-006
           5  0.89229744716045811     
           6 -0.89229739260570251     
