3
 energy: -2.929151194679 gnorm: 0.063949923225 xtb: 6.2.2 (9d81278992624c895f80dd42a50cac0aa55982e2)
C        -0.00040200000000    0.42701500000000    0.00000000000000
H         0.90601600000000   -0.21265400000000    0.00000000000000
H        -0.90561400000000   -0.21436000000000    0.00000000000000
3
 energy: -2.936431120663 gnorm: 0.034718817804 xtb: 6.2.2 (9d81278992624c895f80dd42a50cac0aa55982e2)
C        -0.00031612374679    0.33572946082904    0.00000000000000
H         0.97204907053759   -0.16694902890531   -0.00000000000000
H        -0.97173294679080   -0.16877943192372    0.00000000000000
3
 energy: -2.938113757680 gnorm: 0.007252851163 xtb: 6.2.2 (9d81278992624c895f80dd42a50cac0aa55982e2)
C        -0.00027988947077    0.29719538147793    0.00000000000000
H         0.96976807055637   -0.14768413518508   -0.00000000000000
H        -0.96948818108560   -0.14951024629285    0.00000000000000
3
 energy: -2.938291582129 gnorm: 0.001448435876 xtb: 6.2.2 (9d81278992624c895f80dd42a50cac0aa55982e2)
C        -0.00026152143455    0.27771839752270    0.00000000000000
H         0.97782991446163   -0.13793803145252   -0.00000000000000
H        -0.97756839302709   -0.13977936607018    0.00000000000000
3
 energy: -2.938302033884 gnorm: 0.000463408657 xtb: 6.2.2 (9d81278992624c895f80dd42a50cac0aa55982e2)
C        -0.00025283007201    0.26849345914159    0.00000000000000
H         0.98279784098514   -0.13332087749330   -0.00000000000000
H        -0.98254501091313   -0.13517158164829    0.00000000000000
3
 energy: -2.938303568276 gnorm: 0.000168573573 xtb: 6.2.2 (9d81278992624c895f80dd42a50cac0aa55982e2)
C        -0.00025498261454    0.27077731373604    0.00000000000000
H         0.98119847241433   -0.13446431279460   -0.00000000000000
H        -0.98094348979979   -0.13631200094144    0.00000000000000
