$hessian                                                                        
        0.6198854226   0.0004602281  -0.0000021646  -0.3101601886   0.1280867125
        0.0000008591  -0.3097252340  -0.1285469406   0.0000013055
        0.0004602281   0.1296314565  -0.0000002279   0.1054539471  -0.0645963664
       -0.0000002554  -0.1059141753  -0.0650350902   0.0000004832
       -0.0000021646  -0.0000002279   0.0000000000   0.0000008986  -0.0000003344
       -0.0000000000   0.0000012660   0.0000005622  -0.0000000000
       -0.3101601886   0.1054539471   0.0000008986   0.3211073720  -0.1167545472
       -0.0000009171  -0.0109471833   0.0113006001   0.0000000185
        0.1280867125  -0.0645963664  -0.0000003344  -0.1167545472   0.0587503867
        0.0000003050  -0.0113321653   0.0058459797   0.0000000294
        0.0000008591  -0.0000002554  -0.0000000000  -0.0000009171   0.0000003050
        0.0000000000   0.0000000580  -0.0000000496  -0.0000000000
       -0.3097252340  -0.1059141753   0.0000012660  -0.0109471833  -0.0113321653
        0.0000000580   0.3206724173   0.1172463406  -0.0000013240
       -0.1285469406  -0.0650350902   0.0000005622   0.0113006001   0.0058459797
       -0.0000000496   0.1172463406   0.0591891105  -0.0000005126
        0.0000013055   0.0000004832  -0.0000000000   0.0000000185   0.0000000294
       -0.0000000000  -0.0000013240  -0.0000005126   0.0000000000
