 Entering Gaussian System
 *********************************************
 Gaussian 98:
 frequency output generated by the xtb code
 *********************************************
                         Standard orientation:
 --------------------------------------------------------------------
  Center     Atomic     Atomic              Coordinates (Angstroms)
  Number     Number      Type              X           Y           Z
 --------------------------------------------------------------------
    1          6             0       -0.000254    0.270777   -0.000000
    2          1             0        0.981198   -0.134469   -0.000003
    3          1             0       -0.980944   -0.136307    0.000004
 --------------------------------------------------------------------
     1 basis functions        1 primitive gaussians
     1 alpha electrons        1 beta electrons

 Harmonic frequencies (cm**-1), IR intensities (KM/Mole),
 Raman scattering activities (A**4/amu), Raman depolarization ratios,
 reduced masses (AMU), force constants (mDyne/A) and normal coordinates:
                      1                      2                      3
                        a                      a                      a 
 Frequencies --   918.3157              3136.9916              3298.8037
 Red. masses --     2.3887                 1.2085                 2.3869
 Frc consts  --     0.0000                 0.0000                 0.0000
 IR Inten    --     0.1710                 0.1190                 0.1515
 Raman Activ --     0.0000                 0.0000                 0.0000
 Depolar     --     0.0000                 0.0000                 0.0000
 Atom AN      X      Y      Z        X      Y      Z        X      Y      Z
   1   6    -0.00   0.35  -0.00    -0.00   0.14  -0.00     0.35   0.00  -0.00
   2   1    -0.25  -0.61   0.00     0.66  -0.23  -0.00    -0.61   0.25   0.00
   3   1     0.25  -0.61   0.00    -0.66  -0.23   0.00    -0.61  -0.25   0.00
