 Entering Gaussian System, Link 0=g16
 Initial command:
 /applis/site/cecic/gaussian16/B.01/nehalem/g16/l1.exe "/bettik/tinaccil/g16/12754455_Mg/Gau-212843.inp" -scrdir="/bettik/tinaccil/g16/12754455_Mg/"
 Entering Link 1 = /applis/site/cecic/gaussian16/B.01/nehalem/g16/l1.exe PID=    212868.
  
 Copyright (c) 1988-2017, Gaussian, Inc.  All Rights Reserved.
  
 This is part of the Gaussian(R) 16 program.  It is based on
 the Gaussian(R) 09 system (copyright 2009, Gaussian, Inc.),
 the Gaussian(R) 03 system (copyright 2003, Gaussian, Inc.),
 the Gaussian(R) 98 system (copyright 1998, Gaussian, Inc.),
 the Gaussian(R) 94 system (copyright 1995, Gaussian, Inc.),
 the Gaussian 92(TM) system (copyright 1992, Gaussian, Inc.),
 the Gaussian 90(TM) system (copyright 1990, Gaussian, Inc.),
 the Gaussian 88(TM) system (copyright 1988, Gaussian, Inc.),
 the Gaussian 86(TM) system (copyright 1986, Carnegie Mellon
 University), and the Gaussian 82(TM) system (copyright 1983,
 Carnegie Mellon University). Gaussian is a federally registered
 trademark of Gaussian, Inc.
  
 This software contains proprietary and confidential information,
 including trade secrets, belonging to Gaussian, Inc.
  
 This software is provided under written license and may be
 used, copied, transmitted, or stored only in accord with that
 written license.
  
 The following legend is applicable only to US Government
 contracts under FAR:
  
                    RESTRICTED RIGHTS LEGEND
  
 Use, reproduction and disclosure by the US Government is
 subject to restrictions as set forth in subparagraphs (a)
 and (c) of the Commercial Computer Software - Restricted
 Rights clause in FAR 52.227-19.
  
 Gaussian, Inc.
 340 Quinnipiac St., Bldg. 40, Wallingford CT 06492
  
  
 ---------------------------------------------------------------
 Warning -- This program may not be used in any manner that
 competes with the business of Gaussian, Inc. or will provide
 assistance to any competitor of Gaussian, Inc.  The licensee
 of this program is prohibited from giving any competitor of
 Gaussian, Inc. access to this program.  By using this program,
 the user acknowledges that Gaussian, Inc. is engaged in the
 business of creating and licensing software in the field of
 computational chemistry and represents and warrants to the
 licensee that it is not a competitor of Gaussian, Inc. and that
 it will not use this program in any manner prohibited above.
 ---------------------------------------------------------------
  

 Cite this work as:
 Gaussian 16, Revision B.01,
 M. J. Frisch, G. W. Trucks, H. B. Schlegel, G. E. Scuseria, 
 M. A. Robb, J. R. Cheeseman, G. Scalmani, V. Barone, 
 G. A. Petersson, H. Nakatsuji, X. Li, M. Caricato, A. V. Marenich, 
 J. Bloino, B. G. Janesko, R. Gomperts, B. Mennucci, H. P. Hratchian, 
 J. V. Ortiz, A. F. Izmaylov, J. L. Sonnenberg, D. Williams-Young, 
 F. Ding, F. Lipparini, F. Egidi, J. Goings, B. Peng, A. Petrone, 
 T. Henderson, D. Ranasinghe, V. G. Zakrzewski, J. Gao, N. Rega, 
 G. Zheng, W. Liang, M. Hada, M. Ehara, K. Toyota, R. Fukuda, 
 J. Hasegawa, M. Ishida, T. Nakajima, Y. Honda, O. Kitao, H. Nakai, 
 T. Vreven, K. Throssell, J. A. Montgomery, Jr., J. E. Peralta, 
 F. Ogliaro, M. J. Bearpark, J. J. Heyd, E. N. Brothers, K. N. Kudin, 
 V. N. Staroverov, T. A. Keith, R. Kobayashi, J. Normand, 
 K. Raghavachari, A. P. Rendell, J. C. Burant, S. S. Iyengar, 
 J. Tomasi, M. Cossi, J. M. Millam, M. Klene, C. Adamo, R. Cammi, 
 J. W. Ochterski, R. L. Martin, K. Morokuma, O. Farkas, 
 J. B. Foresman, and D. J. Fox, Gaussian, Inc., Wallingford CT, 2016.
 
 ******************************************
 Gaussian 16:  ES64L-G16RevB.01 20-Dec-2017
                 5-Oct-2020 
 ******************************************
 %nosave
 %nproc=8
 Will use up to    8 processors via shared memory.
 %mem=2gb
 %chk=input
 ------------------------
 #P ROCCSD(T)/aug-cc-pvtz
 ------------------------
 1/38=1,172=1/1;
 2/12=2,17=6,18=5,40=1/2;
 3/5=16,6=1,7=10,11=2,25=1,30=1,116=101/1,2,3;
 4//1;
 5/5=2,38=5/2;
 8/5=-1,6=4,9=120000,10=1/1,4;
 9/5=7,14=2/13;
 6/7=2,8=2,9=2,10=2/1;
 99/5=1,9=1/99;
 Leave Link    1 at Mon Oct  5 21:36:17 2020, MaxMem=   268435456 cpu:               0.8 elap:               0.2
 (Enter /applis/site/cecic/gaussian16/B.01/nehalem/g16/l101.exe)
 -----
 Title
 -----
 Symbolic Z-matrix:
 Charge =  1 Multiplicity = 2
 Mg
 
 ITRead=  0
 MicOpt= -1
 NAtoms=      1 NQM=        1 NQMF=       0 NMMI=      0 NMMIF=      0
                NMic=       0 NMicF=      0.
                    Isotopes and Nuclear Properties:
 (Nuclear quadrupole moments (NQMom) in fm**2, nuclear magnetic moments (NMagM)
  in nuclear magnetons)

  Atom         1
 IAtWgt=          24
 AtmWgt=  23.9850450
 NucSpn=           0
 AtZEff=  -0.0000000
 NQMom=    0.0000000
 NMagM=    0.0000000
 AtZNuc=  12.0000000
 Leave Link  101 at Mon Oct  5 21:36:17 2020, MaxMem=   268435456 cpu:               1.7 elap:               0.2
 (Enter /applis/site/cecic/gaussian16/B.01/nehalem/g16/l202.exe)
                          Input orientation:                          
 ---------------------------------------------------------------------
 Center     Atomic      Atomic             Coordinates (Angstroms)
 Number     Number       Type             X           Y           Z
 ---------------------------------------------------------------------
      1         12           0        0.000000    0.000000    0.000000
 ---------------------------------------------------------------------
 Stoichiometry    Mg(1+,2)
 Framework group  OH[O(Mg)]
 Deg. of freedom     0
 Full point group                 OH      NOp  48
 Largest Abelian subgroup         D2H     NOp   8
 Largest concise Abelian subgroup C1      NOp   1
                         Standard orientation:                         
 ---------------------------------------------------------------------
 Center     Atomic      Atomic             Coordinates (Angstroms)
 Number     Number       Type             X           Y           Z
 ---------------------------------------------------------------------
      1         12           0        0.000000    0.000000    0.000000
 ---------------------------------------------------------------------
 Leave Link  202 at Mon Oct  5 21:36:17 2020, MaxMem=   268435456 cpu:               0.0 elap:               0.0
 (Enter /applis/site/cecic/gaussian16/B.01/nehalem/g16/l301.exe)
 Standard basis: Aug-CC-pVTZ (5D, 7F)
 Ernie: Thresh=  0.10000D-02 Tol=  0.10000D-05 Strict=F.
 Ernie:  14 primitive shells out of 66 were deleted.
 There are    15 symmetry adapted cartesian basis functions of AG  symmetry.
 There are     3 symmetry adapted cartesian basis functions of B1G symmetry.
 There are     3 symmetry adapted cartesian basis functions of B2G symmetry.
 There are     3 symmetry adapted cartesian basis functions of B3G symmetry.
 There are     2 symmetry adapted cartesian basis functions of AU  symmetry.
 There are    11 symmetry adapted cartesian basis functions of B1U symmetry.
 There are    11 symmetry adapted cartesian basis functions of B2U symmetry.
 There are    11 symmetry adapted cartesian basis functions of B3U symmetry.
 There are    12 symmetry adapted basis functions of AG  symmetry.
 There are     3 symmetry adapted basis functions of B1G symmetry.
 There are     3 symmetry adapted basis functions of B2G symmetry.
 There are     3 symmetry adapted basis functions of B3G symmetry.
 There are     2 symmetry adapted basis functions of AU  symmetry.
 There are     9 symmetry adapted basis functions of B1U symmetry.
 There are     9 symmetry adapted basis functions of B2U symmetry.
 There are     9 symmetry adapted basis functions of B3U symmetry.
    50 basis functions,   117 primitive gaussians,    59 cartesian basis functions
     6 alpha electrons        5 beta electrons
       nuclear repulsion energy         0.0000000000 Hartrees.
 IExCor=    0 DFT=F Ex=HF Corr=None ExCW=0 ScaHFX=  1.000000
 ScaDFX=  1.000000  1.000000  1.000000  1.000000 ScalE2=  1.000000  1.000000
 IRadAn=      5 IRanWt=     -1 IRanGd=            0 ICorTp=0 IEmpDi=  4
 NAtoms=    1 NActive=    1 NUniq=    1 SFac= 1.00D+00 NAtFMM=   60 NAOKFM=F Big=F
 Integral buffers will be    131072 words long.
 Raffenetti 2 integral format.
 Two-electron integral symmetry is turned on.
 Leave Link  301 at Mon Oct  5 21:36:17 2020, MaxMem=   268435456 cpu:               0.4 elap:               0.1
 (Enter /applis/site/cecic/gaussian16/B.01/nehalem/g16/l302.exe)
 NPDir=0 NMtPBC=     1 NCelOv=     1 NCel=       1 NClECP=     1 NCelD=      1
         NCelK=      1 NCelE2=     1 NClLst=     1 CellRange=     0.0.
 One-electron integrals computed using PRISM.
 One-electron integral symmetry used in STVInt
 NBasis=    50 RedAO= T EigKep=  1.27D-02  NBF=    12     3     3     3     2     9     9     9
 NBsUse=    50 1.00D-06 EigRej= -1.00D+00 NBFU=    12     3     3     3     2     9     9     9
 Leave Link  302 at Mon Oct  5 21:36:17 2020, MaxMem=   268435456 cpu:               1.0 elap:               0.2
 (Enter /applis/site/cecic/gaussian16/B.01/nehalem/g16/l303.exe)
 DipDrv:  MaxL=1.
 Leave Link  303 at Mon Oct  5 21:36:17 2020, MaxMem=   268435456 cpu:               0.3 elap:               0.1
 (Enter /applis/site/cecic/gaussian16/B.01/nehalem/g16/l401.exe)
 ExpMin= 9.17D-03 ExpMax= 1.65D+05 ExpMxC= 1.60D+03 IAcc=3 IRadAn=         5 AccDes= 0.00D+00
 Harris functional with IExCor=  205 and IRadAn=       5 diagonalized for initial guess.
 HarFok:  IExCor=  205 AccDes= 0.00D+00 IRadAn=         5 IDoV= 1 UseB2=F ITyADJ=14
 ICtDFT=  3500011 ScaDFX=  1.000000  1.000000  1.000000  1.000000
 FoFCou: FMM=F IPFlag=           0 FMFlag=      100000 FMFlg1=           0
         NFxFlg=           0 DoJE=T BraDBF=F KetDBF=T FulRan=T
         wScrn=  0.000000 ICntrl=       500 IOpCl=  0 I1Cent=   200000004 NGrid=           0
         NMat0=    1 NMatS0=      1 NMatT0=    0 NMatD0=    1 NMtDS0=    0 NMtDT0=    0
 Petite list used in FoFCou.
 Harris En= -199.158619691547    
 JPrj=0 DoOrth=F DoCkMO=F.
 Initial guess orbital symmetries:
       Occupied  (A1G) (A1G) (T1U) (T1U) (T1U) (A1G)
       Virtual   (T1U) (T1U) (T1U) (A1G) (T1U) (T1U) (T1U) (T2G)
                 (T2G) (T2G) (EG) (EG) (T1U) (T1U) (T1U) (A1G)
                 (T2U) (T2U) (T2U) (A2U) (T1U) (T1U) (T1U) (T2G)
                 (T2G) (T2G) (EG) (EG) (T1U) (T1U) (T1U) (T2G)
                 (T2G) (T2G) (EG) (EG) (T2U) (T2U) (T2U) (A2U)
                 (T1U) (T1U) (T1U) (A1G)
 The electronic state of the initial guess is 2-A1G.
 Leave Link  401 at Mon Oct  5 21:36:17 2020, MaxMem=   268435456 cpu:               1.4 elap:               0.2
 (Enter /applis/site/cecic/gaussian16/B.01/nehalem/g16/l502.exe)
 Keep R1 and R2 ints in memory in symmetry-blocked form, NReq=4747226.
 FoFCou: FMM=F IPFlag=           0 FMFlag=           0 FMFlg1=           0
         NFxFlg=           0 DoJE=F BraDBF=F KetDBF=F FulRan=T
         wScrn=  0.000000 ICntrl=       600 IOpCl=  0 I1Cent=           0 NGrid=           0
         NMat0=    1 NMatS0=   1275 NMatT0=    0 NMatD0=    1 NMtDS0=    0 NMtDT0=    0
 Petite list used in FoFCou.
 Restricted open shell SCF:
 Using DIIS extrapolation, IDIIS=  1040.
 NGot=   268435456 LenX=   268204232 LenY=   268200310
 Requested convergence on RMS density matrix=1.00D-08 within 128 cycles.
 Requested convergence on MAX density matrix=1.00D-06.
 Requested convergence on             energy=1.00D-06.
 No special actions if energy rises.

 Cycle   1  Pass 1  IDiag  1:
 E= -199.344520687329    
 DIIS: error= 5.68D-02 at cycle   1 NSaved=   1.
 NSaved= 1 IEnMin= 1 EnMin= -199.344520687329     IErMin= 1 ErrMin= 5.68D-02
 ErrMax= 5.68D-02  0.00D+00 EMaxC= 1.00D-01 BMatC= 4.72D-02 BMatP= 4.72D-02
 IDIUse=3 WtCom= 4.32D-01 WtEn= 5.68D-01
 Coeff-Com:  0.100D+01
 Coeff-En:   0.100D+01
 Coeff:      0.100D+01
 Gap=     0.099 Goal=   None    Shift=    0.000
 GapD=    0.099 DampG=0.500 DampE=0.500 DampFc=0.2500 IDamp=-1.
 Damping current iteration by 2.50D-01
 RMSDP=8.40D-03 MaxDP=1.93D-01              OVMax= 2.22D-01

 Cycle   2  Pass 1  IDiag  1:
 E= -199.349360975598     Delta-E=       -0.004840288269 Rises=F Damp=T
 DIIS: error= 4.20D-02 at cycle   2 NSaved=   2.
 NSaved= 2 IEnMin= 2 EnMin= -199.349360975598     IErMin= 2 ErrMin= 4.20D-02
 ErrMax= 4.20D-02  0.00D+00 EMaxC= 1.00D-01 BMatC= 2.39D-02 BMatP= 4.72D-02
 IDIUse=3 WtCom= 5.80D-01 WtEn= 4.20D-01
 Coeff-Com: -0.110D+01 0.210D+01
 Coeff-En:   0.835D-01 0.916D+00
 Coeff:     -0.602D+00 0.160D+01
 Gap=     0.086 Goal=   None    Shift=    0.000
 RMSDP=5.57D-03 MaxDP=1.25D-01 DE=-4.84D-03 OVMax= 3.75D-01

 Cycle   3  Pass 1  IDiag  1:
 E= -199.341601809653     Delta-E=        0.007759165945 Rises=F Damp=F
 DIIS: error= 3.86D-02 at cycle   3 NSaved=   3.
 NSaved= 3 IEnMin= 2 EnMin= -199.349360975598     IErMin= 3 ErrMin= 3.86D-02
 ErrMax= 3.86D-02  0.00D+00 EMaxC= 1.00D-01 BMatC= 8.25D-03 BMatP= 2.39D-02
 IDIUse=3 WtCom= 6.14D-01 WtEn= 3.86D-01
 Coeff-Com: -0.874D+00 0.121D+01 0.662D+00
 Coeff-En:   0.000D+00 0.636D+00 0.364D+00
 Coeff:     -0.537D+00 0.990D+00 0.547D+00
 Gap=     0.104 Goal=   None    Shift=    0.000
 RMSDP=3.33D-03 MaxDP=1.05D-01 DE= 7.76D-03 OVMax= 1.84D-01

 Cycle   4  Pass 1  IDiag  1:
 E= -199.364982014482     Delta-E=       -0.023380204829 Rises=F Damp=F
 DIIS: error= 1.60D-02 at cycle   4 NSaved=   4.
 NSaved= 4 IEnMin= 4 EnMin= -199.364982014482     IErMin= 4 ErrMin= 1.60D-02
 ErrMax= 1.60D-02  0.00D+00 EMaxC= 1.00D-01 BMatC= 1.72D-03 BMatP= 8.25D-03
 IDIUse=3 WtCom= 8.40D-01 WtEn= 1.60D-01
 Coeff-Com: -0.594D+00 0.823D+00 0.189D+00 0.583D+00
 Coeff-En:   0.000D+00 0.000D+00 0.000D+00 0.100D+01
 Coeff:     -0.499D+00 0.691D+00 0.159D+00 0.649D+00
 Gap=     0.104 Goal=   None    Shift=    0.000
 RMSDP=1.64D-03 MaxDP=4.72D-02 DE=-2.34D-02 OVMax= 3.81D-02

 Cycle   5  Pass 1  IDiag  1:
 E= -199.367642462800     Delta-E=       -0.002660448318 Rises=F Damp=F
 DIIS: error= 1.21D-02 at cycle   5 NSaved=   5.
 NSaved= 5 IEnMin= 5 EnMin= -199.367642462800     IErMin= 5 ErrMin= 1.21D-02
 ErrMax= 1.21D-02  0.00D+00 EMaxC= 1.00D-01 BMatC= 8.77D-04 BMatP= 1.72D-03
 IDIUse=3 WtCom= 8.79D-01 WtEn= 1.21D-01
 Coeff-Com: -0.385D+00 0.528D+00 0.394D-01-0.129D+00 0.946D+00
 Coeff-En:   0.000D+00 0.000D+00 0.000D+00 0.000D+00 0.100D+01
 Coeff:     -0.338D+00 0.464D+00 0.347D-01-0.113D+00 0.953D+00
 Gap=     0.101 Goal=   None    Shift=    0.000
 RMSDP=8.31D-04 MaxDP=2.30D-02 DE=-2.66D-03 OVMax= 3.31D-02

 Cycle   6  Pass 1  IDiag  1:
 E= -199.369256431709     Delta-E=       -0.001613968909 Rises=F Damp=F
 DIIS: error= 7.82D-03 at cycle   6 NSaved=   6.
 NSaved= 6 IEnMin= 6 EnMin= -199.369256431709     IErMin= 6 ErrMin= 7.82D-03
 ErrMax= 7.82D-03  0.00D+00 EMaxC= 1.00D-01 BMatC= 3.81D-04 BMatP= 8.77D-04
 IDIUse=3 WtCom= 9.22D-01 WtEn= 7.82D-02
 Coeff-Com: -0.769D-01 0.102D+00 0.385D-01-0.265D+00-0.106D+01 0.226D+01
 Coeff-En:   0.000D+00 0.000D+00 0.000D+00 0.000D+00 0.000D+00 0.100D+01
 Coeff:     -0.709D-01 0.945D-01 0.355D-01-0.245D+00-0.975D+00 0.216D+01
 Gap=     0.100 Goal=   None    Shift=    0.000
 RMSDP=1.61D-03 MaxDP=4.41D-02 DE=-1.61D-03 OVMax= 5.24D-02

 Cycle   7  Pass 1  IDiag  1:
 E= -199.370441731801     Delta-E=       -0.001185300093 Rises=F Damp=F
 DIIS: error= 1.21D-03 at cycle   7 NSaved=   7.
 NSaved= 7 IEnMin= 7 EnMin= -199.370441731801     IErMin= 7 ErrMin= 1.21D-03
 ErrMax= 1.21D-03  0.00D+00 EMaxC= 1.00D-01 BMatC= 9.85D-06 BMatP= 3.81D-04
 IDIUse=3 WtCom= 9.88D-01 WtEn= 1.21D-02
 Coeff-Com: -0.170D-01 0.230D-01 0.217D-01-0.655D-01-0.335D+00 0.463D+00
 Coeff-Com:  0.910D+00
 Coeff-En:   0.000D+00 0.000D+00 0.000D+00 0.000D+00 0.000D+00 0.000D+00
 Coeff-En:   0.100D+01
 Coeff:     -0.168D-01 0.227D-01 0.214D-01-0.647D-01-0.331D+00 0.457D+00
 Coeff:      0.911D+00
 Gap=     0.101 Goal=   None    Shift=    0.000
 RMSDP=2.54D-04 MaxDP=7.09D-03 DE=-1.19D-03 OVMax= 6.75D-03

 Cycle   8  Pass 1  IDiag  1:
 E= -199.370469534547     Delta-E=       -0.000027802745 Rises=F Damp=F
 DIIS: error= 4.18D-04 at cycle   8 NSaved=   8.
 NSaved= 8 IEnMin= 8 EnMin= -199.370469534547     IErMin= 8 ErrMin= 4.18D-04
 ErrMax= 4.18D-04  0.00D+00 EMaxC= 1.00D-01 BMatC= 9.91D-07 BMatP= 9.85D-06
 IDIUse=3 WtCom= 9.96D-01 WtEn= 4.18D-03
 Coeff-Com: -0.194D-02 0.272D-02-0.747D-03 0.373D-02-0.396D-01-0.264D-02
 Coeff-Com:  0.113D+00 0.926D+00
 Coeff-En:   0.000D+00 0.000D+00 0.000D+00 0.000D+00 0.000D+00 0.000D+00
 Coeff-En:   0.000D+00 0.100D+01
 Coeff:     -0.193D-02 0.271D-02-0.744D-03 0.372D-02-0.394D-01-0.263D-02
 Coeff:      0.112D+00 0.926D+00
 Gap=     0.101 Goal=   None    Shift=    0.000
 RMSDP=8.35D-05 MaxDP=2.31D-03 DE=-2.78D-05 OVMax= 3.02D-03

 Cycle   9  Pass 1  IDiag  1:
 E= -199.370472710040     Delta-E=       -0.000003175493 Rises=F Damp=F
 DIIS: error= 2.13D-05 at cycle   9 NSaved=   9.
 NSaved= 9 IEnMin= 9 EnMin= -199.370472710040     IErMin= 9 ErrMin= 2.13D-05
 ErrMax= 2.13D-05  0.00D+00 EMaxC= 1.00D-01 BMatC= 3.97D-09 BMatP= 9.91D-07
 IDIUse=1 WtCom= 1.00D+00 WtEn= 0.00D+00
 Coeff-Com: -0.189D-02 0.250D-02 0.317D-03-0.422D-02-0.607D-02 0.292D-01
 Coeff-Com: -0.601D-01 0.827D-02 0.103D+01
 Coeff:     -0.189D-02 0.250D-02 0.317D-03-0.422D-02-0.607D-02 0.292D-01
 Coeff:     -0.601D-01 0.827D-02 0.103D+01
 Gap=     0.101 Goal=   None    Shift=    0.000
 RMSDP=4.12D-06 MaxDP=1.27D-04 DE=-3.18D-06 OVMax= 1.85D-04

 Cycle  10  Pass 1  IDiag  1:
 E= -199.370472681587     Delta-E=        0.000000028453 Rises=F Damp=F
 DIIS: error= 4.64D-05 at cycle  10 NSaved=  10.
 NSaved=10 IEnMin= 9 EnMin= -199.370472710040     IErMin= 9 ErrMin= 2.13D-05
 ErrMax= 4.64D-05  0.00D+00 EMaxC= 1.00D-01 BMatC= 1.26D-08 BMatP= 3.97D-09
 IDIUse=1 WtCom= 1.00D+00 WtEn= 0.00D+00
 Coeff-Com: -0.365D-03 0.491D-03 0.108D-03-0.821D-03-0.103D-02 0.773D-03
 Coeff-Com:  0.695D-02-0.806D-01-0.381D-01 0.111D+01
 Coeff:     -0.365D-03 0.491D-03 0.108D-03-0.821D-03-0.103D-02 0.773D-03
 Coeff:      0.695D-02-0.806D-01-0.381D-01 0.111D+01
 Gap=     0.101 Goal=   None    Shift=    0.000
 RMSDP=8.95D-06 MaxDP=2.46D-04 DE= 2.85D-08 OVMax= 2.95D-04

 Cycle  11  Pass 1  IDiag  1:
 E= -199.370472720627     Delta-E=       -0.000000039040 Rises=F Damp=F
 DIIS: error= 8.38D-06 at cycle  11 NSaved=  11.
 NSaved=11 IEnMin=11 EnMin= -199.370472720627     IErMin=11 ErrMin= 8.38D-06
 ErrMax= 8.38D-06  0.00D+00 EMaxC= 1.00D-01 BMatC= 4.14D-10 BMatP= 3.97D-09
 IDIUse=1 WtCom= 1.00D+00 WtEn= 0.00D+00
 Coeff-Com:  0.107D-04-0.142D-04-0.519D-05 0.615D-04-0.116D-03 0.105D-03
 Coeff-Com: -0.145D-03 0.334D-02-0.239D-01-0.257D+00 0.128D+01
 Coeff:      0.107D-04-0.142D-04-0.519D-05 0.615D-04-0.116D-03 0.105D-03
 Coeff:     -0.145D-03 0.334D-02-0.239D-01-0.257D+00 0.128D+01
 Gap=     0.101 Goal=   None    Shift=    0.000
 RMSDP=2.06D-06 MaxDP=5.54D-05 DE=-3.90D-08 OVMax= 6.73D-05

 Cycle  12  Pass 1  IDiag  1:
 E= -199.370472721950     Delta-E=       -0.000000001323 Rises=F Damp=F
 DIIS: error= 2.75D-07 at cycle  12 NSaved=  12.
 NSaved=12 IEnMin=12 EnMin= -199.370472721950     IErMin=12 ErrMin= 2.75D-07
 ErrMax= 2.75D-07  0.00D+00 EMaxC= 1.00D-01 BMatC= 4.30D-13 BMatP= 4.14D-10
 IDIUse=1 WtCom= 1.00D+00 WtEn= 0.00D+00
 Coeff-Com: -0.139D-06 0.182D-06 0.141D-06-0.153D-05 0.636D-05-0.678D-05
 Coeff-Com: -0.177D-05 0.132D-03-0.147D-03 0.682D-02-0.109D-01 0.100D+01
 Coeff:     -0.139D-06 0.182D-06 0.141D-06-0.153D-05 0.636D-05-0.678D-05
 Coeff:     -0.177D-05 0.132D-03-0.147D-03 0.682D-02-0.109D-01 0.100D+01
 Gap=     0.101 Goal=   None    Shift=    0.000
 RMSDP=6.18D-08 MaxDP=1.71D-06 DE=-1.32D-09 OVMax= 2.15D-06

 Cycle  13  Pass 1  IDiag  1:
 E= -199.370472721951     Delta-E=       -0.000000000001 Rises=F Damp=F
 DIIS: error= 5.08D-09 at cycle  13 NSaved=  13.
 NSaved=13 IEnMin=13 EnMin= -199.370472721951     IErMin=13 ErrMin= 5.08D-09
 ErrMax= 5.08D-09  0.00D+00 EMaxC= 1.00D-01 BMatC= 1.40D-16 BMatP= 4.30D-13
 IDIUse=1 WtCom= 1.00D+00 WtEn= 0.00D+00
 Coeff-Com:  0.103D-08-0.150D-08-0.130D-09-0.445D-09-0.437D-07 0.124D-06
 Coeff-Com: -0.147D-06-0.780D-05 0.602D-04-0.752D-04-0.451D-04-0.176D-02
 Coeff-Com:  0.100D+01
 Coeff:      0.103D-08-0.150D-08-0.130D-09-0.445D-09-0.437D-07 0.124D-06
 Coeff:     -0.147D-06-0.780D-05 0.602D-04-0.752D-04-0.451D-04-0.176D-02
 Coeff:      0.100D+01
 Gap=     0.101 Goal=   None    Shift=    0.000
 RMSDP=9.99D-10 MaxDP=2.90D-08 DE=-1.28D-12 OVMax= 3.84D-08

 SCF Done:  E(ROHF) =  -199.370472722     A.U. after   13 cycles
            NFock= 13  Conv=0.10D-08     -V/T= 2.0001
 <Sx>= 0.0000 <Sy>= 0.0000 <Sz>= 0.5000 <S**2>= 0.7500 S= 0.5000
 <L.S>= 0.000000000000E+00
 KE= 1.993544138827D+02 PE=-4.750408272556D+02 EE= 7.631594065094D+01
 Annihilation of the first spin contaminant:
 S**2 before annihilation     0.7500,   after     0.7500
 Leave Link  502 at Mon Oct  5 21:36:18 2020, MaxMem=   268435456 cpu:               6.2 elap:               0.8
 (Enter /applis/site/cecic/gaussian16/B.01/nehalem/g16/l801.exe)
 Windowed orbitals will be sorted by symmetry type.
 GenMOA:  NOpAll= 48 NOp2=8 NOpUse= 48 JSym2X=1
 FoFJK:  IHMeth= 1 ICntrl=       0 DoSepK=F KAlg= 0 I1Cent=           0 FoldK=F
 IRaf=         0 NMat=       1 IRICut=       1 DoRegI=T DoRafI=F ISym2E= 1 IDoP0=0 IntGTp=1.
 FoFCou: FMM=F IPFlag=           0 FMFlag=      100000 FMFlg1=           0
         NFxFlg=           0 DoJE=F BraDBF=F KetDBF=F FulRan=T
         wScrn=  0.000000 ICntrl=         0 IOpCl=  1 I1Cent=           0 NGrid=           0
         NMat0=    1 NMatS0=      1 NMatT0=    0 NMatD0=    1 NMtDS0=    0 NMtDT0=    0
 Petite list used in FoFCou.
 <Sx>= 0.0000 <Sy>= 0.0000 <Sz>= 0.5000 <S**2>= 0.7500 S= 0.5000
 ExpMin= 9.17D-03 ExpMax= 1.65D+05 ExpMxC= 1.60D+03 IAcc=3 IRadAn=         5 AccDes= 0.00D+00
 HarFok:  IExCor=  205 AccDes= 0.00D+00 IRadAn=         5 IDoV=-2 UseB2=F ITyADJ=14
 ICtDFT= 12500011 ScaDFX=  1.000000  1.000000  1.000000  1.000000
 Largest valence mixing into a core orbital is  2.00D-04
 Largest core mixing into a valence orbital is  8.59D-05
 Range of M.O.s used for correlation:     6    50
 NBasis=    50 NAE=     6 NBE=     5 NFC=     5 NFV=     0
 NROrb=     45 NOA=     1 NOB=     0 NVA=    44 NVB=    45
 *** There is no correlation energy for this system ***
 Singles contribution to E2=   -0.5126406704D-10
 Leave Link  801 at Mon Oct  5 21:36:23 2020, MaxMem=   268435456 cpu:              30.2 elap:               4.4
 (Enter /applis/site/cecic/gaussian16/B.01/nehalem/g16/l804.exe)
 Open-shell transformation, MDV=   268435456 ITran=4 ISComp=2.
 Unit  1 TFree=         63414 TCopy=        259604.
 Semi-Direct transformation.
 ModeAB=           2 MOrb=             1 LenV=     268137464
 LASXX=         5722 LTotXX=        5722 LenRXX=        5722
 LTotAB=        6311 MaxLAS=       79650 LenRXY=       79650
 NonZer=       86400 LenScr=      720896 LnRSAI=           0
 LnScr1=           0 LExtra=           0 Total=       806268
 MaxDsk=          -1 SrtSym=           F ITran=            4
 DoSDTr:  NPSUse=  8
 JobTyp=1 Pass  1:  I=   1 to   1.
 (rs|ai) integrals will be sorted in core.
 Complete sort for first half transformation.
 First half transformation complete.
 Complete sort for second half transformation.
 Second half transformation complete.
 Spin components of T(2) and E(2):
     alpha-alpha T2 =       0.0000000000D+00 E2=      0.0000000000D+00
     alpha-beta  T2 =       0.0000000000D+00 E2=      0.0000000000D+00
     beta-beta   T2 =       0.0000000000D+00 E2=      0.0000000000D+00
 ANorm=    0.1000000000D+01
 E2 =    -0.5126406704D-10 EUMP2 =    -0.19937047272200D+03
 Leave Link  804 at Mon Oct  5 21:36:23 2020, MaxMem=   268435456 cpu:               2.7 elap:               0.5
 (Enter /applis/site/cecic/gaussian16/B.01/nehalem/g16/l913.exe)
 CIDS:  MDV=   268435456.
 Frozen-core window:  NFC=   5 NFV=   0.
 IFCWin=0 IBDFC=1 NFBD=     0     0 NFCmp=     0     0 NFFFC=     0     0
 Using original routines for 1st iteration.
 Using DD4UQ or CC4UQ for 2nd and later iterations.
 Keep R2 and R3 ints in memory in symmetry-blocked form, NReq=4750521.
 FoFCou: FMM=F IPFlag=           0 FMFlag=           0 FMFlg1=           0
         NFxFlg=           0 DoJE=F BraDBF=F KetDBF=F FulRan=T
         wScrn=  0.000000 ICntrl=       600 IOpCl=  0 I1Cent=           0 NGrid=           0
         NMat0=    1 NMatS0=   1275 NMatT0=    0 NMatD0=    1 NMtDS0=    0 NMtDT0=    0
 Petite list used in FoFCou.
 CIDS: In Core Option IDoMem=           1.
 CCSD(T)
 =======
 Iterations=  50 Convergence= 0.100D-06
 Produce multiple copies of IABC intergrals
 Iteration Nr.   1
 **********************
 Illegal file or unit passed to FileIO.
 FileIO: IOper= 2 IFilNo(1)=     0 Len=           0 IPos=           0 Q=   47122157946832


 dumping /fiocom/, unit = 1 NFiles =    90 SizExt =   4194304 WInBlk =     65536
                   defal = F LstWrd =     2490368 FType=2 FMxFil=10000

 Number              0             5             7            15            16            25
 Base          1265223       1200455       1120805       1200759       1120989       1120717
 End           2490368       1200759       1120989       1206177       1127116       1120761
 End1          2490368       1200759       1120989       1206177       1127116       1120761
 Wr Pntr       1265223       1200455       1120805       1200759       1120989       1120717
 Rd Pntr       1265223       1200759       1120805       1200759       1120989       1120717
 Length        1225145           304           184          5418          6127            44
 Int.Num             1             2             3             4             5             6

 Number             30           110           201           203           501           502
 Base          1207356       1120761       1200455       1120805        454852        268989
 End           1207400       1120805       1206177       1200455        455852        273169
 End1          1207400       1120805       1206177       1200455        520388        273169
 Wr Pntr       1207400       1120761       1200455       1120805        454852        268989
 Rd Pntr       1207400       1120761       1200455       1120805        454852        268989
 Length             44            44          5722         79650          1000          4180
 Int.Num             7             8             9            10            11            12

 Number            503           507           508           514           515           516
 Base          1116234       1116238        276236        285191        280091        276266
 End           1116238       1116260        276266        286466        285191        280091
 End1          1116238       1116260        276266        286466        285191        280091
 Wr Pntr       1116234       1116238        276236        285191        280091        276266
 Rd Pntr       1116234       1116238        276266        285191        280091        276266
 Length              4            22            30          1275          5100          3825
 Int.Num            13            14            15            16            17            18

 Number            517           518           520           521           522           523
 Base           292791        288966        276224        268548        292941        292841
 End            292841        292791        276234        268583        293041        292941
 End1           292841        292791        276234        268583        293041        292941
 Wr Pntr        292791        288966        276224        268548        292941        292841
 Rd Pntr        292791        288966        276224        268548        293041        292841
 Length             50          3825            10            35           100           100
 Int.Num            19            20            21            22            23            24

 Number            524           526           528           530           532           534
 Base           293141        295641        298141        299416        300791        302066
 End            295641        298141        299416        300691        302066        303341
 End1           295641        298141        299416        300691        302066        303341
 Wr Pntr        293141        295641        298141        299416        300791        302066
 Rd Pntr        293141        295641        298141        299416        300791        302066
 Length           2500          2500          1275          1275          1275          1275
 Int.Num            25            26            27            28            29            30

 Number            536           538           540           545           547           548
 Base           303341        304616        305891        323743        853900        313391
 End            304616        305891        308391        323771        854000        317891
 End1           304616        305891        308391        323771        854000        317891
 Wr Pntr        303341        304616        305891        323743        853900        313391
 Rd Pntr        304616        305891        305891        323743        853900        313391
 Length           1275          1275          2500            28           100          4500
 Int.Num            31            32            33            34            35            36

 Number            549           551           552           559           561           562
 Base           317891        268502        268470        274985        268540        262364
 End            319916        268540        268494        274987        268541        268470
 End1           319916        268540        268494        274987        268541        268470
 Wr Pntr        317891        268502        268470        274985        268540        262364
 Rd Pntr        317891        268502        268470        274985        268540        262364
 Length           2025            38            24             2             1          6106
 Int.Num            37            38            39            40            41            42

 Number            563           564           565           569           571           577
 Base           300691        300741        275191        323741        322466        274989
 End            300741        300791        275959        323743        323741        275041
 End1           300741        300791        275959        323743        323741        275041
 Wr Pntr        300691        300741        275191        323741        322466        274989
 Rd Pntr        300691        300741        275191        323741        322466        274989
 Length             50            50           768             2          1275            52
 Int.Num            43            44            45            46            47            48

 Number            579           580           581           582           583           584
 Base           268494        273169        274041        275041        274987        275959
 End            268502        274041        274985        275191        274989        275965
 End1           268502        274041        274985        275191        274989        275965
 Wr Pntr        268494        273169        274041        275041        274987        275959
 Rd Pntr        268494        273169        274041        275041        274987        275959
 Length              8           872           944           150             2             6
 Int.Num            49            50            51            52            53            54

 Number            598           600           603           605           606           607
 Base           854090       1206177        276234        276235        293041        853810
 End            854092       1207356        276235        276236        293141        853900
 End1           919626       1207356        276235        276236        293141        853900
 Wr Pntr        854090       1206177        276234        276235        293041        853810
 Rd Pntr        854090       1206177        276234        276235        293041        853810
 Length              2          1179             1             1           100            90
 Int.Num            55            56            57            58            59            60

 Number            619           634           659           670           674           685
 Base           275965        848068        319916        268583       1120676        286466
 End            276162        853810        322466        268989       1120717        288966
 End1           276162        853810        322466        268989       1120717        288966
 Wr Pntr        275965        848068        319916        268583       1120676        286466
 Rd Pntr        275965        853810        319916        268583       1120676        288966
 Length            197          5742          2550           406            41          2500
 Int.Num            61            62            63            64            65            66

 Number            694           695           698           752           760           761
 Base           854000        276162        268542        323771        308391        268541
 End            854090        276221        268548        323780        313391        268542
 End1           854090        276221        268548        323780        313391        268542
 Wr Pntr        854000        276162        268542        323771        308391        268541
 Rd Pntr        854000        276162        268542        323771        308391        268541
 Length             90            59             6             9          5000             1
 Int.Num            67            68            69            70            71            72

 Number            800           801           805           810           988           989
 Base          1116260       1050698       1207400        276221        585924        520388
 End           1120676       1050704       1207472        276224        655928        540388
 End1          1120676       1116234       1207472        276224        716996        585924
 Wr Pntr       1116260       1050698       1207400        276221        585924        520388
 Rd Pntr       1116260       1050698       1207400        276221        585924        520388
 Length           4416             6            72             3         70004         20000
 Int.Num            73            74            75            76            77            78

 Number            991           992           993           994           995           996
 Base           782532        716996        389316         65536        323780        196608
 End            789094        717006        389516         65566        323800        196808
 End1           848068        782532        454852        131072        389316        262144
 Wr Pntr        782532        716996        389316         65536        323780        196608
 Rd Pntr        782532        716996        389316         65536        323780        196608
 Length           6562            10           200            30            20           200
 Int.Num            79            80            81            82            83            84

 Number            997           998           999          2997          2998          2999
 Base           262144        131072        919626       1265179       1235354       1207472
 End            262364        131272       1022130       1265223       1265179       1235354
 End1           262364        196608       1050698       1265223       1265179       1235354
 Wr Pntr        262144        131272        919626       1265223       1235354       1224122
 Rd Pntr        262144        131272        919626       1265223       1247203       1207472
 Length            220           200        102504            44         29825         27882
 Int.Num            85            86            87            88            89            90


 dumping /fiocom/, unit = 2 NFiles =     8 SizExt =   4194304 WInBlk =     65536
                   defal = F LstWrd =      131072 FType=2 FMxFil=10000

 Number              0           508           522           536           538           634
 Base            76658         65536         65766         71608         72883         65866
 End            131072         65566         65866         72883         74158         71608
 End1           131072         65566         65866         72883         74158         71608
 Wr Pntr         76658         65536         65766         71608         72883         65866
 Rd Pntr         76658         65536         65766         71608         72883         65866
 Length          54414            30           100          1275          1275          5742
 Int.Num             1             2             3             4             5             6

 Number            685           998
 Base            74158         65566
 End             76658         65766
 End1            76658         65766
 Wr Pntr         74158         65566
 Rd Pntr         74158         65566
 Length           2500           200
 Int.Num             7             8


 dumping /fiocom/, unit = 3 NFiles =     1 SizExt =    524288 WInBlk =     65536
                   defal = F LstWrd =      131072 FType=2 FMxFil=10000

 Number              0
 Base            65536
 End            131072
 End1           131072
 Wr Pntr         65536
 Rd Pntr         65536
 Length          65536
 Int.Num             1
 Illegal file or unit passed to FileIO.
 FileIO: IOper= 2 IFilNo(1)=     0 Len=           0 IPos=           0 Q=   47122157946832
 Error termination in NtrErr:
 NtrErr Called from FileIO.
