      -----------------------------------------------------------      
     |                   =====================                   |     
     |                           x T B                           |     
     |                   =====================                   |     
     |                         S. Grimme                         |     
     |          Mulliken Center for Theoretical Chemistry        |     
     |                    University of Bonn                     |     
      -----------------------------------------------------------      

   * xtb version 6.2.2 (9d81278992624c895f80dd42a50cac0aa55982e2) compiled by '@Darwin' on 04/03/2020

   xtb is free software: you can redistribute it and/or modify it under
   the terms of the GNU Lesser General Public License as published by
   the Free Software Foundation, either version 3 of the License, or
   (at your option) any later version.
   
   xtb is distributed in the hope that it will be useful,
   but WITHOUT ANY WARRANTY; without even the implied warranty of
   MERCHANTABILITY or FITNESS FOR A PARTICULAR PURPOSE.  See the
   GNU Lesser General Public License for more details.
   
   Cite this work as:
   * S. Grimme, C. Bannwarth, P. Shushkov, J. Chem. Theory Comput., 2017,
     13, 1989-2009. DOI: 10.1021/acs.jctc.7b00118
   * C. Bannwarth, S. Ehlert and S. Grimme., J. Chem. Theory Comput., 2019,
     15, 1652-1671. DOI: 10.1021/acs.jctc.8b01176
   * P. Pracht, E. Caldeweyher, S. Ehlert, S. Grimme, ChemRxiv, 2019, preprint.
     DOI: 10.26434/chemrxiv.8326202.v1
   
   for DFT-D4:
   * E. Caldeweyher, C. Bannwarth and S. Grimme, J. Chem. Phys., 2017,
     147, 034112. DOI: 10.1063/1.4993215
   * E. Caldeweyher, S. Ehlert, A. Hansen, H. Neugebauer, S. Spicher,
     C. Bannwarth and S. Grimme, J. Chem. Phys., 2019, 150, 154122.
     DOI: 10.1063/1.5090222
   
   for sTDA-xTB:
   * S. Grimme and C. Bannwarth, J. Chem. Phys., 2016, 145, 054103.
     DOI: 10.1063/1.4959605
   
   in the mass-spec context:
   * V. Asgeirsson, C. Bauer and S. Grimme, Chem. Sci., 2017, 8, 4879.
     DOI: 10.1039/c7sc00601b
   
   for metadynamics refer to:
   * S. Grimme, J. Chem. Theory Comput., 2019, 155, 2847-2862
     DOI: 10.1021/acs.jctc.9b00143
   
   with help from (in alphabetical order)
   C. Bannwarth, F. Bohle, G. Brandenburg, E. Caldeweyher, M. Checinski,
   S. Dohm, S. Ehlert, S. Ehrlich, F. März, H. Neugebauer, J. Pisarek,
   P. Pracht, P. Shushkov, and S. Spicher.
   
 * started run on 2020/05/12 at 11:45:16.417     

           -------------------------------------------------
          |                Calculation Setup                |
           -------------------------------------------------

          program call               : xtb --input N1O2_0_S_1.input N1O2_0_S_1.xyz --ohess --molden --namespace N1O2_0_S_1 output.out
          calculation namespace      : N1O2_0_S_1
          coordinate file            : N1O2_0_S_1.xyz
          number of atoms            :                     3
          number of electrons        :                    17
          charge                     :                     0
          spin                       :                   0.5
          first test random number   :      0.31830123488153

   ID    Z sym.   atoms
    1    7 N      1
    2    8 O      2, 3

           -------------------------------------------------
          |                 G F N 2 - x T B                 |
           -------------------------------------------------

        Reference                      10.1021/acs.jctc.8b01176
      * Hamiltonian:
        H0-scaling (s, p, d)           1.850000    2.230000    2.230000
        zeta-weighting                 0.500000
      * Dispersion:
        s8                             2.700000
        a1                             0.520000
        a2                             5.000000
        s9                             5.000000
      * Repulsion:
        kExp                           1.500000    1.000000
        rExp                           1.000000
      * Coulomb:
        alpha                          2.000000
        third order                    shell-resolved
        anisotropic                    true
        a3                             3.000000
        a5                             4.000000
        cn-shift                       1.200000
        cn-exp                         4.000000
        max-rad                        5.000000


          ...................................................
          :                      SETUP                      :
          :.................................................:
          :  # basis functions                  12          :
          :  # atomic orbitals                  12          :
          :  # shells                            6          :
          :  # electrons                        17          :
          :  max. iterations                   250          :
          :  Hamiltonian                  GFN2-xTB          :
          :  restarted?                      false          :
          :  GBSA solvation                  false          :
          :  PC potential                    false          :
          :  electronic temp.          300.0000000     K    :
          :  accuracy                    1.0000000          :
          :  -> integral cutoff          0.2500000E+02      :
          :  -> integral neglect         0.1000000E-07      :
          :  -> SCF convergence          0.1000000E-05 Eh   :
          :  -> wf. convergence          0.1000000E-03 e    :
          :  Broyden damping             0.4000000          :
          ...................................................

 iter      E             dE          RMSdq      gap      omega  full diag
   1    -10.6425818 -0.106426E+02  0.104E+01    2.64       0.0  T
   2    -10.7472814 -0.104700E+00  0.555E+00    1.83       1.0  T
   3    -10.8216966 -0.744152E-01  0.190E+00    2.11       1.0  T
   4    -10.8235514 -0.185480E-02  0.700E-01    2.01       1.0  T
   5    -10.8236223 -0.708671E-04  0.149E-01    1.98       1.0  T
   6    -10.8235693  0.530169E-04  0.137E-01    1.98       1.0  T
   7    -10.8236259 -0.566452E-04  0.207E-02    1.98       2.8  T
   8    -10.8236264 -0.498285E-06  0.642E-03    1.98       9.0  T
   9    -10.8236264 -0.637843E-08  0.494E-04    1.98     116.9  T
  10    -10.8236264 -0.354774E-10  0.301E-04    1.98     191.6  T

   *** convergence criteria satisfied after 10 iterations ***

         #    Occupation            Energy/Eh            Energy/eV
      -------------------------------------------------------------
         1        2.0000           -0.7988356             -21.7374
       ...           ...                  ...                  ...
         3        2.0000           -0.6841509             -18.6167
         4        2.0000           -0.6448788             -17.5480
         5        2.0000           -0.6351193             -17.2825
         6        2.0000           -0.6237969             -16.9744
         7        2.0000           -0.5303363             -14.4312
         8        1.9995           -0.5054762             -13.7547
         9        1.0005           -0.4908489             -13.3567 (HOMO)
        10                         -0.4181701             -11.3790 (LUMO)
        11                         -0.0592494              -1.6123
        12                         -0.0384392              -1.0460
      -------------------------------------------------------------
                  HL-Gap            0.0726788 Eh            1.9777 eV
             Fermi-level           -0.4763360 Eh          -12.9618 eV

 SCC (total)                   0 d,  0 h,  0 min,  0.002 sec
 SCC setup                      ...        0 min,  0.000 sec (  4.340%)
 Dispersion                     ...        0 min,  0.000 sec (  0.455%)
 integral evaluation            ...        0 min,  0.001 sec ( 30.814%)
 zeroth order Hamiltonian       ...        0 min,  0.000 sec (  0.611%)
 iterations                     ...        0 min,  0.001 sec ( 36.353%)
 molecular gradient             ...        0 min,  0.001 sec ( 24.431%)
 printout                       ...        0 min,  0.000 sec (  2.509%)

         :::::::::::::::::::::::::::::::::::::::::::::::::::::
         ::                     SUMMARY                     ::
         :::::::::::::::::::::::::::::::::::::::::::::::::::::
         :: total energy             -10.813974581113 Eh    ::
         :: gradient norm              0.318916677232 Eh/a0 ::
         :: HOMO-LUMO gap              1.977690120862 eV    ::
         ::.................................................::
         :: SCC energy               -10.823626425595 Eh    ::
         :: -> isotropic ES            0.020503197067 Eh    ::
         :: -> anisotropic ES          0.002603247042 Eh    ::
         :: -> anisotropic XC          0.001261996927 Eh    ::
         :: -> dispersion             -0.000648707127 Eh    ::
         :: repulsion energy           0.009651843305 Eh    ::
         :: add. restraining           0.000000000000 Eh    ::
         :::::::::::::::::::::::::::::::::::::::::::::::::::::

      ----------------------------------------------------------- 
     |                   =====================                   |
     |                        A N C O P T                        |
     |                   =====================                   |
     |               Approximate Normal Coordinate               |
     |                Rational Function Optimizer                |
      ----------------------------------------------------------- 

          ...................................................
          :                      SETUP                      :
          :.................................................:
          :   optimization level            normal          :
          :   max. optcycles                   200          :
          :   ANC micro-cycles                  20          :
          :   degrees of freedom                 3          :
          :.................................................:
          :   RF solver                   davidson          :
          :   write xtbopt.log                true          :
          :   linear?                        false          :
          :   energy convergence         0.5000000E-05 Eh   :
          :   grad. convergence          0.1000000E-02 Eh/α :
          :   maximium RF displ.         1.0000000          :
          :   Hlow (freq-cutoff)         0.1000000E-01      :
          :   Hmax (freq-cutoff)         5.0000000          :
          :   S6 in model hess.         20.0000000          :
          ...................................................

generating ANC from model Hessian ...
Using Lindh-Hessian (1995)
 Shifting diagonal of input Hessian by    0.0000000000000000     
 Lowest  eigenvalues of input Hessian
   -0.000000   -0.000000   -0.000000    0.000000    0.000000    0.000000
    0.227234    1.191134    1.475315
 Highest eigenvalues
    0.000000    0.000000    0.000000    0.227234    1.191134    1.475315


........................................................................
.............................. CYCLE    1 ..............................
........................................................................
   1    -10.8236264 -0.108236E+02  0.247E-05    1.98       0.0  T
   2    -10.8236264 -0.444089E-13  0.158E-05    1.98    3656.2  T
   3    -10.8236264  0.364153E-12  0.116E-05    1.98    4963.4  T
     SCC iter.                  ...        0 min,  0.000 sec
     gradient                   ...        0 min,  0.000 sec
 * total energy  :   -10.8139746 Eh     change       -0.4780816E-09 Eh
   gradient norm :     0.3189165 Eh/α   predicted     0.0000000E+00 (-100.00%)
   displ. norm   :     0.3506997 α      lambda       -0.9492774E-01
   maximum displ.:     0.2561522 α      in ANC's #1, #2, #3, ...

........................................................................
.............................. CYCLE    2 ..............................
........................................................................
   1    -10.9054635 -0.109055E+02  0.305E+00    1.83       0.0  T
   2    -10.9071671 -0.170360E-02  0.182E+00    1.75       1.0  T
   3    -10.9072833 -0.116140E-03  0.542E-01    1.71       1.0  T
   4    -10.9073713 -0.880697E-04  0.124E-01    1.69       1.0  T
   5    -10.9073717 -0.368716E-06  0.568E-03    1.69      10.2  T
   6    -10.9073717 -0.174401E-07  0.334E-03    1.69      17.3  T
   7    -10.9073717 -0.795634E-09  0.213E-04    1.69     270.7  T
   8    -10.9073717  0.266969E-10  0.137E-04    1.69     420.0  T
     SCC iter.                  ...        0 min,  0.000 sec
     gradient                   ...        0 min,  0.001 sec
 * total energy  :   -10.8844878 Eh     change       -0.7051324E-01 Eh
   gradient norm :     0.1866043 Eh/α   predicted    -0.5330147E-01 ( -24.41%)
   displ. norm   :     0.3307224 α      lambda       -0.6170546E-01
   maximum displ.:     0.3305534 α      in ANC's #2, #1, #3, ...

........................................................................
.............................. CYCLE    3 ..............................
........................................................................
   1    -10.9678922 -0.109679E+02  0.267E+00    1.73       0.0  T
   2    -10.9708517 -0.295944E-02  0.150E+00    1.65       1.0  T
   3    -10.9709529 -0.101265E-03  0.619E-01    1.59       1.0  T
   4    -10.9709693 -0.164107E-04  0.841E-02    1.56       1.0  T
   5    -10.9709695 -0.180022E-06  0.773E-03    1.56       7.5  T
   6    -10.9709696 -0.679513E-07  0.271E-03    1.56      21.3  T
   7    -10.9709696 -0.561036E-09  0.248E-04    1.56     233.1  T
   8    -10.9709696 -0.425597E-10  0.102E-04    1.56     568.5  T
     SCC iter.                  ...        0 min,  0.000 sec
     gradient                   ...        0 min,  0.001 sec
 * total energy  :   -10.8919000 Eh     change       -0.7412134E-02 Eh
   gradient norm :     0.2095954 Eh/α   predicted    -0.3422733E-01 ( 361.77%)
   displ. norm   :     0.1842305 α      lambda       -0.3663914E-01
   maximum displ.:     0.1303204 α      in ANC's #1, #2, #3, ...

........................................................................
.............................. CYCLE    4 ..............................
........................................................................
   1    -10.9456143 -0.109456E+02  0.133E+00    1.25       0.0  T
   2    -10.9475539 -0.193967E-02  0.584E-01    1.28       1.0  T
   3    -10.9475776 -0.236286E-04  0.352E-01    1.30       1.0  T
   4    -10.9475869 -0.930773E-05  0.423E-02    1.31       1.4  T
   5    -10.9475869 -0.714134E-07  0.487E-03    1.31      11.9  T
   6    -10.9475869 -0.885403E-08  0.219E-03    1.31      26.4  T
   7    -10.9475869  0.763693E-09  0.890E-04    1.31      64.9  T
   8    -10.9475869 -0.162822E-08  0.886E-05    1.31     651.7  T
     SCC iter.                  ...        0 min,  0.001 sec
     gradient                   ...        0 min,  0.001 sec
 * total energy  :   -10.9055950 Eh     change       -0.1369499E-01 Eh
   gradient norm :     0.0339106 Eh/α   predicted    -0.1894135E-01 (  38.31%)
   displ. norm   :     0.0234407 α      lambda       -0.7938700E-03
   maximum displ.:     0.0214381 α      in ANC's #2, #1, #3, ...

........................................................................
.............................. CYCLE    5 ..............................
........................................................................
   1    -10.9519166 -0.109519E+02  0.174E-01    1.33       0.0  T
   2    -10.9519430 -0.263580E-04  0.895E-02    1.32       1.0  T
   3    -10.9519433 -0.377177E-06  0.513E-02    1.32       1.1  T
   4    -10.9519435 -0.155140E-06  0.635E-03    1.32       9.1  T
   5    -10.9519435 -0.152300E-08  0.454E-04    1.32     127.0  T
   6    -10.9519435 -0.125411E-10  0.246E-04    1.32     234.9  T
     SCC iter.                  ...        0 min,  0.000 sec
     gradient                   ...        0 min,  0.001 sec
 * total energy  :   -10.9060796 Eh     change       -0.4846486E-03 Eh
   gradient norm :     0.0072156 Eh/α   predicted    -0.3971541E-03 ( -18.05%)
   displ. norm   :     0.0063704 α      lambda       -0.4577923E-04
   maximum displ.:     0.0061919 α      in ANC's #2, #1, #3, ...

........................................................................
.............................. CYCLE    6 ..............................
........................................................................
   1    -10.9530600 -0.109531E+02  0.491E-02    1.32       0.0  T
   2    -10.9530617 -0.169851E-05  0.267E-02    1.31       2.2  T
   3    -10.9530617 -0.302873E-07  0.143E-02    1.31       4.0  T
   4    -10.9530617 -0.104040E-07  0.184E-03    1.31      31.4  T
   5    -10.9530617 -0.110532E-09  0.116E-04    1.31     497.8  T
   6    -10.9530617  0.989431E-12  0.479E-05    1.31    1205.3  T
     SCC iter.                  ...        0 min,  0.000 sec
     gradient                   ...        0 min,  0.001 sec
 * total energy  :   -10.9061017 Eh     change       -0.2207320E-04 Eh
   gradient norm :     0.0003187 Eh/α   predicted    -0.2289106E-04 (   3.71%)
   displ. norm   :     0.0006813 α      lambda       -0.1186274E-06
   maximum displ.:     0.0006681 α      in ANC's #1, #2, #3, ...

........................................................................
.............................. CYCLE    7 ..............................
........................................................................
   1    -10.9529953 -0.109530E+02  0.486E-03    1.31       0.0  T
   2    -10.9529953 -0.147886E-07  0.224E-03    1.31      25.8  T
   3    -10.9529953 -0.182082E-09  0.111E-03    1.31      52.0  T
   4    -10.9529953 -0.626379E-10  0.121E-04    1.31     478.6  T
   5    -10.9529953  0.708766E-12  0.707E-05    1.31     816.7  T
     SCC iter.                  ...        0 min,  0.000 sec
     gradient                   ...        0 min,  0.001 sec
 * total energy  :   -10.9061017 Eh     change       -0.5633790E-07 Eh
   gradient norm :     0.0001478 Eh/α   predicted    -0.5918329E-07 (   5.05%)
   displ. norm   :     0.0001411 α      lambda       -0.1048113E-07
   maximum displ.:     0.0000998 α      in ANC's #2, #1, #3, ...

   *** GEOMETRY OPTIMIZATION CONVERGED AFTER 7 ITERATIONS ***

------------------------------------------------------------------------
 total energy gain   :        -0.0921271 Eh      -57.8107 kcal/mol
 total RMSD          :         0.3425806 a0        0.1813 Å
 total power (kW/mol):       -34.5542565 (step)********** (real)
------------------------------------------------------------------------

 ANCopt (total)                0 d,  0 h,  0 min,  0.012 sec
 optimizer setup                ...        0 min,  0.000 sec (  0.618%)
 model hessian                  ...        0 min,  0.000 sec (  0.374%)
 ANC generation                 ...        0 min,  0.000 sec (  0.364%)
 coordinate transformation      ...        0 min,  0.000 sec (  0.156%)
 single point calculation       ...        0 min,  0.011 sec ( 93.772%)
 optimization log               ...        0 min,  0.000 sec (  1.236%)
 hessian update                 ...        0 min,  0.000 sec (  0.131%)
 rational function              ...        0 min,  0.000 sec (  1.198%)

================
 final structure:
================
3
 xtb: 6.2.2 (9d81278992624c895f80dd42a50cac0aa55982e2)
N        -0.00135209439285    0.28282962745397    0.00000000000000
O        -1.10118521383070   -0.14667972694256    0.00000000000000
O         1.10253730822355   -0.13614990051140    0.00000000000000

 Bond Distances (Angstroems)
 ---------------------------
N1-O2=1.1807         N1-O3=1.1807         O2-N1=1.1807         O3-N1=1.1807         
 O  N  Rav=1.1807 sigma=0.0000  Rmin=1.1807  Rmax=1.1807     2

 selected bond angles (degree)
 --------------------
O3-N1-O2=137.88                

 selected dihedral angles (degree)
 ---------------------------------

           -------------------------------------------------
          |                Final Singlepoint                |
           -------------------------------------------------

          ...................................................
          :                      SETUP                      :
          :.................................................:
          :  # basis functions                  12          :
          :  # atomic orbitals                  12          :
          :  # shells                            6          :
          :  # electrons                        17          :
          :  max. iterations                   250          :
          :  Hamiltonian                  GFN2-xTB          :
          :  restarted?                      false          :
          :  GBSA solvation                  false          :
          :  PC potential                    false          :
          :  electronic temp.          300.0000000     K    :
          :  accuracy                    1.0000000          :
          :  -> integral cutoff          0.2500000E+02      :
          :  -> integral neglect         0.1000000E-07      :
          :  -> SCF convergence          0.1000000E-05 Eh   :
          :  -> wf. convergence          0.1000000E-03 e    :
          :  Broyden damping             0.4000000          :
          ...................................................

 iter      E             dE          RMSdq      gap      omega  full diag
   1    -10.9529953 -0.109530E+02  0.188E-05    1.31       0.0  T
   2    -10.9529953 -0.515143E-13  0.117E-05    1.31    4952.5  T
   3    -10.9529953  0.710543E-14  0.272E-06    1.31   21192.2  T

   *** convergence criteria satisfied after 3 iterations ***

         #    Occupation            Energy/Eh            Energy/eV
      -------------------------------------------------------------
         1        2.0000           -0.8231881             -22.4001
       ...           ...                  ...                  ...
         3        2.0000           -0.6868545             -18.6903
         4        2.0000           -0.6843987             -18.6234
         5        2.0000           -0.6594895             -17.9456
         6        2.0000           -0.6308296             -17.1657
         7        2.0000           -0.5343100             -14.5393
         8        2.0000           -0.5247613             -14.2795
         9        1.0000           -0.3787532             -10.3064 (HOMO)
        10                         -0.3305675              -8.9952 (LUMO)
        11                          0.1430191               3.8917
        12                          0.5654093              15.3856
      -------------------------------------------------------------
                  HL-Gap            0.0481858 Eh            1.3112 eV
             Fermi-level           -0.4032088 Eh          -10.9719 eV

 SCC (total)                   0 d,  0 h,  0 min,  0.002 sec
 SCC setup                      ...        0 min,  0.000 sec (  5.377%)
 Dispersion                     ...        0 min,  0.000 sec (  0.439%)
 integral evaluation            ...        0 min,  0.001 sec ( 39.715%)
 zeroth order Hamiltonian       ...        0 min,  0.000 sec (  0.636%)
 iterations                     ...        0 min,  0.000 sec ( 18.040%)
 molecular gradient             ...        0 min,  0.001 sec ( 32.127%)
 printout                       ...        0 min,  0.000 sec (  2.969%)

         :::::::::::::::::::::::::::::::::::::::::::::::::::::
         ::                     SUMMARY                     ::
         :::::::::::::::::::::::::::::::::::::::::::::::::::::
         :: total energy             -10.906101729568 Eh    ::
         :: gradient norm              0.000147804422 Eh/a0 ::
         :: HOMO-LUMO gap              1.311201225791 eV    ::
         ::.................................................::
         :: SCC energy               -10.952995293461 Eh    ::
         :: -> isotropic ES            0.022272908243 Eh    ::
         :: -> anisotropic ES          0.007149565255 Eh    ::
         :: -> anisotropic XC         -0.001124561316 Eh    ::
         :: -> dispersion             -0.000650698644 Eh    ::
         :: repulsion energy           0.046893564750 Eh    ::
         :: add. restraining           0.000000000000 Eh    ::
         :::::::::::::::::::::::::::::::::::::::::::::::::::::

           ------------------------------------------------- 
          |                Numerical Hessian                |
           ------------------------------------------------- 
step length          :   0.00500
SCC accuracy         :   0.30000
Hessian scale factor :   1.00000
frozen atoms in %    :   0.00000    0
RMS gradient         :   0.00015
estimated CPU  time      0.00 min
estimated wall time      0.00 min

writing file <hessian>.

 projected vibrational frequencies (cm-1)
eigval :       -0.00    -0.00     0.00     0.00     0.00     0.00
eigval :      651.43  1428.19  1930.36
           -------------------------------------------------
          |                Property Printout                |
           -------------------------------------------------

    * Orbital Energies and Occupations

         #    Occupation            Energy/Eh            Energy/eV
      -------------------------------------------------------------
         1        2.0000           -0.8231881             -22.4001
         2        2.0000           -0.8006480             -21.7867
         3        2.0000           -0.6868545             -18.6903
         4        2.0000           -0.6843987             -18.6234
         5        2.0000           -0.6594895             -17.9456
         6        2.0000           -0.6308296             -17.1657
         7        2.0000           -0.5343100             -14.5393
         8        2.0000           -0.5247613             -14.2795
         9        1.0000           -0.3787532             -10.3064 (HOMO)
        10                         -0.3305675              -8.9952 (LUMO)
        11                          0.1430191               3.8917
        12                          0.5654093              15.3856
      -------------------------------------------------------------
                  HL-Gap            0.0481858 Eh            1.3112 eV
             Fermi-level           -0.4032088 Eh          -10.9719 eV

     #   Z        covCN         q      C6AA      α(0)
     1   7 N      1.846     0.464    14.891     5.719
     2   8 O      0.923    -0.232    18.575     5.780
     3   8 O      0.923    -0.232    18.575     5.780

 Mol. C6AA /au·bohr⁶  :        155.457490
 Mol. C8AA /au·bohr⁸  :       3226.129346
 Mol. α(0) /au        :         17.278789


Wiberg/Mayer (AO) data.
largest (>0.10) Wiberg bond orders for each atom
          total WBO             WBO to atom ...
     1  N   3.227        O    2 1.614    O    3 1.614
     2  O   1.994        N    1 1.614    O    3 0.380
     3  O   1.994        N    1 1.614    O    2 0.380

MOs/occ written to file <molden.input>


molecular dipole:
                 x           y           z       tot (Debye)
 q only:       -0.002       0.372      -0.000
   full:       -0.002       0.317      -0.000       0.806
molecular quadrupole (traceless):
                xx          xy          yy          xz          yz          zz
 q only:       -2.064      -0.015       1.106       0.000      -0.000       0.957
  q+dip:       -3.656      -0.026       1.766       0.000       0.000       1.890
   full:       -3.910      -0.026       1.509       0.000       0.000       2.401

           -------------------------------------------------
          |                Geometry Summary                 |
           -------------------------------------------------

      molecular mass/u    :       46.0055130
   center of mass at/Å    :        0.0000585      -0.0122506       0.0000000
  moments of inertia/u·Å² :        0.1753485E+01   0.3885059E+02   0.4060407E+02
rotational constants/cm⁻¹ :        0.9613786E+01   0.4339093E+00   0.4151710E+00

 * 2 selected distances

     #   Z        #   Z                                     value/Å
     1   7 N      2   8 O                                 1.1807249 (min)
     1   7 N      3   8 O                                 1.1807267 (max)

 * 1 distinct bonds (by element types)

   Z      Z             #   av. dist./Å        max./Å        min./Å
   7 N    8 O           2     1.1807258     1.1807267     1.1807249

           -------------------------------------------------
          |               Frequency Printout                |
           -------------------------------------------------
Molecule has the following symmetry elements: (C2) 2*(sigma) 
It seems to be the C2v point group
 projected vibrational frequencies (cm-1)
eigval :       -0.00    -0.00     0.00     0.00     0.00     0.00
eigval :      651.43  1428.19  1930.36
 reduced masses (amu)
   1: 15.68   2: 15.21   3: 14.79   4: 15.86   5: 15.80   6: 15.38   7: 15.10   8: 15.51
   9: 14.67
 IR intensities (amu)
   1:  0.10   2:  0.09   3:  0.43   4:  0.15   5:  0.14   6:  0.04   7:  0.67   8:  0.06
   9:  3.03
 Raman intensities (amu)
   1:  0.00   2:  0.00   3:  0.00   4:  0.00   5:  0.00   6:  0.00   7:  0.00   8:  0.00
   9:  0.00
 output can be read by thermo (or use thermo option).
 writing <g98.out> molden fake output.
 recommended (thermochemical) frequency scaling factor: 1.0
           -------------------------------------------------
          |             Thermodynamic Functions             |
           -------------------------------------------------

c2v symmetry found (for desy threshold:  0.10E+00) used in thermo

          ...................................................
          :                      SETUP                      :
          :.................................................:
          :  # frequencies                           3      :
          :  # imaginary freq.                       0      :
          :  linear?                             false      :
          :  only rotor calc.                    false      :
          :  symmetry                              c2v      :
          :  rotational number                       2      :
          :  scaling factor                  1.0000000      :
          :  rotor cutoff                   50.0000000 cm⁻¹ :
          :  imag. cutoff                  -20.0000000 cm⁻¹ :
          :.................................................:

    mode    ω/cm⁻¹     T·S(HO)/kcal·mol⁻¹    T·S(FR)/kcal·mol⁻¹   T·S(vib)
   ------------------------------------------------------------------------
   ------------------------------------------------------------------------

   temp. (K)  partition function   enthalpy   heat capacity  entropy
                                   cal/mol     cal/K/mol   cal/K/mol   J/K/mol
 298.15  VIB   1.05                   88.597      1.037      0.387
         ROT  0.201E+04              888.752      2.981     18.095
         INT  0.210E+04              977.350      4.018     18.482
         TR   0.302E+27             1481.254      4.968     37.387
         TOT                        2458.6035     8.9857    55.8683   233.7531

   temp. (K)  partition function   enthalpy   heat capacity  entropy
                                   cal/mol     cal/K/mol   cal/K/mol   J/K/mol
 120.00  VIB   1.00                    0.756      0.049      0.007
         ROT   513.                  357.707      2.981     15.382
         INT   513.                  358.462      3.030     15.389
         TR   0.771E+26              596.178      4.968     32.867
         TOT                         954.6404     7.9983    48.2562   201.9040

   temp. (K)  partition function   enthalpy   heat capacity  entropy
                                   cal/mol     cal/K/mol   cal/K/mol   J/K/mol
 100.00  VIB   1.00                    0.158      0.015      0.002
         ROT   390.                  298.089      2.981     14.838
         INT   390.                  298.247      2.996     14.840
         TR   0.586E+26              496.815      4.968     31.962
         TOT                         795.0624     7.9639    46.8020   195.8196

   temp. (K)  partition function   enthalpy   heat capacity  entropy
                                   cal/mol     cal/K/mol   cal/K/mol   J/K/mol
  80.00  VIB   1.00                    0.015      0.002      0.000
         ROT   279.                  238.471      2.981     14.173
         INT   279.                  238.486      2.983     14.173
         TR   0.420E+26              397.452      4.968     30.854
         TOT                         635.9384     7.9513    45.0272   188.3939

   temp. (K)  partition function   enthalpy   heat capacity  entropy
                                   cal/mol     cal/K/mol   cal/K/mol   J/K/mol
  60.00  VIB   1.00                    0.000      0.000     -0.000
         ROT   181.                  178.853      2.981     13.316
         INT   181.                  178.854      2.981     13.315
         TR   0.273E+26              298.089      4.968     29.425
         TOT                         476.9427     7.9491    42.7409   178.8280

   temp. (K)  partition function   enthalpy   heat capacity  entropy
                                   cal/mol     cal/K/mol   cal/K/mol   J/K/mol
  40.00  VIB   1.00                    0.000      0.000     -0.000
         ROT   98.7                  119.236      2.981     12.107
         INT   98.7                  119.236      2.981     12.107
         TR   0.148E+26              198.726      4.968     27.412
         TOT                         317.9616     7.9490    39.5188   165.3467

   temp. (K)  partition function   enthalpy   heat capacity  entropy
                                   cal/mol     cal/K/mol   cal/K/mol   J/K/mol
  20.00  VIB   1.00                    0.000      0.000     -0.000
         ROT   34.9                   59.618      2.981     10.041
         INT   34.9                   59.618      2.981     10.041
         TR   0.525E+25               99.363      4.968     23.970
         TOT                         158.9808     7.9490    34.0106   142.3004

   temp. (K)  partition function   enthalpy   heat capacity  entropy
                                   cal/mol     cal/K/mol   cal/K/mol   J/K/mol
  10.00  VIB   1.00                    0.000      0.000     -0.000
         ROT   12.3                   29.809      2.981      7.974
         INT   12.3                   29.809      2.981      7.974
         TR   0.185E+25               49.681      4.968     20.528
         TOT                          79.4904     7.9490    28.5024   119.2541

       T/K    H(0)-H(T)+PV         H(T)/Eh          T*S/Eh         G(T)/Eh
   ------------------------------------------------------------------------
    298.15    0.391803E-02    0.130534E-01    0.265448E-01   -0.134914E-01
    120.00    0.152132E-02    0.106567E-01    0.922814E-02    0.142859E-02
    100.00    0.126701E-02    0.104024E-01    0.745837E-02    0.294405E-02
     80.00    0.101343E-02    0.101488E-01    0.574044E-02    0.440841E-02
     60.00    0.760057E-03    0.989547E-02    0.408672E-02    0.580875E-02
     40.00    0.506704E-03    0.964211E-02    0.251909E-02    0.712302E-02
     20.00    0.253352E-03    0.938876E-02    0.108399E-02    0.830477E-02
     10.00    0.126676E-03    0.926209E-02    0.454215E-03    0.880787E-02 (used)
   ------------------------------------------------------------------------

         :::::::::::::::::::::::::::::::::::::::::::::::::::::
         ::                  THERMODYNAMIC                  ::
         :::::::::::::::::::::::::::::::::::::::::::::::::::::
         :: total free energy         -10.897293858280 Eh   ::
         ::.................................................::
         :: total energy              -10.906101729568 Eh   ::
         :: zero point energy           0.009135410241 Eh   ::
         :: G(RRHO) w/o ZPVE           -0.000327538953 Eh   ::
         :: G(RRHO) contrib.            0.008807871288 Eh   ::
         :::::::::::::::::::::::::::::::::::::::::::::::::::::

optimized geometry written to: xtbopt.xyz


           -------------------------------------------------
          | TOTAL ENERGY              -10.906101729568 Eh   |
          | TOTAL ENTHALPY            -10.896839643312 Eh   |
          | TOTAL FREE ENERGY         -10.897293858280 Eh   |
          | GRADIENT NORM               0.000147806100 Eh/α |
          | HOMO-LUMO GAP               1.311201208649 eV   |
           -------------------------------------------------

------------------------------------------------------------------------
 * finished run on 2020/05/12 at 11:45:16.481     
------------------------------------------------------------------------
 total:
 * wall-time:     0 d,  0 h,  0 min,  0.063 sec
 *  cpu-time:     0 d,  0 h,  0 min,  0.062 sec
 * ratio c/w:     0.980 speedup
 SCF:
 * wall-time:     0 d,  0 h,  0 min,  0.002 sec
 *  cpu-time:     0 d,  0 h,  0 min,  0.002 sec
 * ratio c/w:     1.000 speedup
 ANC optimizer:
 * wall-time:     0 d,  0 h,  0 min,  0.015 sec
 *  cpu-time:     0 d,  0 h,  0 min,  0.014 sec
 * ratio c/w:     0.966 speedup
 numerical hessian:
 * wall-time:     0 d,  0 h,  0 min,  0.028 sec
 *  cpu-time:     0 d,  0 h,  0 min,  0.028 sec
 * ratio c/w:     0.995 speedup

