$hessian                                                                        
        0.7646264761   0.0016192359   0.1398697660  -0.6531506321  -0.0068140829
       -0.1503501841  -0.0793782363   0.0079931772   0.0272520558  -0.0320976077
       -0.0027983302  -0.0167716378
        0.0016192359   0.0044323046   0.0019891691  -0.0038419902  -0.0044225475
       -0.0030070936   0.0036756149  -0.0044976397   0.0013343362  -0.0014528607
        0.0044878826  -0.0003164118
        0.1398697660   0.0019891691   0.0397392211  -0.1336175834  -0.0032771329
       -0.0469117402   0.0082343430   0.0016577431   0.0067840755  -0.0144865256
       -0.0003697794   0.0003884436
       -0.6531506321  -0.0038419902  -0.1336175834   1.0517365423  -0.0171067988
        0.0672802998  -0.3826635283   0.0124387313   0.0251555510  -0.0159223818
        0.0085100577   0.0411817326
       -0.0068140829  -0.0044225475  -0.0032771329  -0.0171067988   0.0061863371
        0.0105623928   0.0207602561   0.0026614393  -0.0076634446   0.0031606256
       -0.0044252289   0.0003781848
       -0.1503501841  -0.0030070936  -0.0469117402   0.0672802998   0.0105623928
        0.0785347072   0.0636722494  -0.0081414445  -0.0334652703   0.0193976348
        0.0005861453   0.0018423033
       -0.0793782363   0.0036756149   0.0082343430  -0.3826635283   0.0207602561
        0.0636722494   1.3686638777  -0.0017130859   0.1329067052  -0.9066221132
       -0.0227227851  -0.2048132977
        0.0079931772  -0.0044976397   0.0016577431   0.0124387313   0.0026614393
       -0.0081414445  -0.0017130859   0.0075432118   0.0120990149  -0.0187188226
       -0.0057070115  -0.0056153135
        0.0272520558   0.0013343362   0.0067840755   0.0251555510  -0.0076634446
       -0.0334652703   0.1329067052   0.0120990149   0.0794156290  -0.1853143121
       -0.0057699065  -0.0527344341
       -0.0320976077  -0.0014528607  -0.0144865256  -0.0159223818   0.0031606256
        0.0193976348  -0.9066221132  -0.0187188226  -0.1853143121   0.9546421027
        0.0170110577   0.1804032029
       -0.0027983302   0.0044878826  -0.0003697794   0.0085100577  -0.0044252289
        0.0005861453  -0.0227227851  -0.0057070115  -0.0057699065   0.0170110577
        0.0056443578   0.0055535405
       -0.0167716378  -0.0003164118   0.0003884436   0.0411817326   0.0003781848
        0.0018423033  -0.2048132977  -0.0056153135  -0.0527344341   0.1804032029
        0.0055535405   0.0505036872
