[Molden Format]
[Title]
[Atoms] AU
C      1     6  0.34812218090756E+01 -0.58208289021075E-01  0.19120920672575E+00
C      2     6  0.11841937613012E+01 -0.76974027580369E-01 -0.31108348169968E+00
C      3     6 -0.12479829982703E+01  0.90386412428015E-01  0.28258104085329E+00
O      4     8 -0.34174325721130E+01  0.44795904170142E-01 -0.16270865560528E+00
[GTO]
           1 0
 s           4   1.0000000000000000     
   51.049363095579913      -0.16312063210127389     
   8.7911227406887544      -0.19911024581000730     
  0.70640422258929825       0.31882047753655751     
  0.26922813413411617       0.12706504184240380     
 p           4   1.0000000000000000     
   5.8263656140800002       0.73716451545209605     
   1.5106896018720002       0.68216371614850257     
  0.53256483288000001       0.35783053929253711     
  0.21202323690600003        5.3983030275847881E-002

           2 0
 s           4   1.0000000000000000     
   51.049363095579913      -0.16312063210127389     
   8.7911227406887544      -0.19911024581000730     
  0.70640422258929825       0.31882047753655751     
  0.26922813413411617       0.12706504184240380     
 p           4   1.0000000000000000     
   5.8263656140800002       0.73716451545209605     
   1.5106896018720002       0.68216371614850257     
  0.53256483288000001       0.35783053929253711     
  0.21202323690600003        5.3983030275847881E-002

           3 0
 s           4   1.0000000000000000     
   51.049363095579913      -0.16312063210127389     
   8.7911227406887544      -0.19911024581000730     
  0.70640422258929825       0.31882047753655751     
  0.26922813413411617       0.12706504184240380     
 p           4   1.0000000000000000     
   5.8263656140800002       0.73716451545209605     
   1.5106896018720002       0.68216371614850257     
  0.53256483288000001       0.35783053929253711     
  0.21202323690600003        5.3983030275847881E-002

           4 0
 s           4   1.0000000000000000     
   69.137961906196551      -0.20478756370077797     
   11.906129132707308      -0.24997023136827334     
  0.95670827744340703       0.40025880240639616     
  0.36462520496073686       0.15952206667693555     
 p           4   1.0000000000000000     
   8.2124193257781641        1.1321556799186829     
   2.1293576997098116        1.0476840782254817     
  0.75066448202360914       0.54956508217158984     
  0.29885246543283073        8.2908486592766617E-002

[MO]
Sym=     1a
Ene=  -0.77002794711567180     
Spin= Alpha
Occup=     2.00000000
           1  -3.2190565936645239E-003
           2  -3.1443194206905727E-003
           3   6.8154406848313230E-005
           4  -2.5827967077320166E-005
           5   2.8940913155912653E-002
           6  -4.1717535925227998E-002
           7   1.4997257658871982E-003
           8   3.4030664227076269E-003
           9  0.34216186692934791     
          10 -0.21728884069154197     
          11  -5.6930080514952987E-003
          12  -5.0637863593321786E-002
          13  0.64659775240335515     
          14  0.22823391019997724     
          15   4.7083035280432520E-003
          16   4.5630905242284900E-002
Sym=     2a
Ene=  -0.68102224563814462     
Spin= Alpha
Occup=     2.00000000
           1  0.24174309637385349     
           2 -0.14640008750376055     
           3   1.4549675909145243E-003
           4  -1.6119082822112607E-002
           5  0.49071636128224283     
           6  -5.6319988321993517E-002
           7   1.1215614540869995E-002
           8   5.8438709560371963E-002
           9  0.35547203752347672     
          10  0.24019391724580627     
          11  -1.4304631746002912E-002
          12  -4.5031441918354058E-002
          13 -0.26500536376384720     
          14  0.19978536131082875     
          15  -7.4278120419861140E-003
          16  -1.5351043901446511E-002
Sym=     3a
Ene=  -0.64125995121438439     
Spin= Alpha
Occup=     2.00000000
           1  0.44286339878676823     
           2 -0.13564121005278834     
           3  -2.3952389688149246E-003
           4  -3.7668130228311565E-002
           5  0.21151607105661846     
           6  0.32367232222634751     
           7  -6.2834740870734750E-003
           8   1.7678582351582959E-002
           9 -0.27064330673439735     
          10  -4.4476633047015067E-002
          11   3.1119077857341879E-003
          12   1.8430802156866304E-002
          13  0.40917314416880418     
          14 -0.35191733271219339     
          15  -1.8654926569384338E-003
          16  -3.9219773243969358E-002
Sym=     4a
Ene=  -0.59952439899364451     
Spin= Alpha
Occup=     2.00000000
           1 -0.16686188427514217     
           2   1.1283431173619041E-002
           3  -4.9083005503331679E-003
           4  -2.2863880929046638E-002
           5   8.7794954120183691E-002
           6 -0.16485192349924666     
           7  -1.6714836929098229E-002
           8 -0.11363123152616729     
           9  -8.6212690956055105E-002
          10  0.18560050758032345     
          11  -8.1354095027132228E-002
          12 -0.41156364994913142     
          13  0.24232356298144991     
          14 -0.19260214490206529     
          15 -0.11562820670927428     
          16 -0.62820716181386393     
Sym=     5a
Ene=  -0.59456984966146009     
Spin= Alpha
Occup=     2.00000000
           1  -1.8448421704309965E-003
           2  -1.2446782481447790E-003
           3  -5.3864944286410414E-002
           4   1.0414349766980927E-002
           5  -1.6843280319036201E-003
           6  -5.5176087835675652E-003
           7 -0.16499669418419757     
           8   3.1291705114030288E-002
           9  -7.3922582932614610E-004
          10  -9.5928617484054238E-003
          11 -0.50149693109364013     
          12   9.5380687899895192E-002
          13   1.8239395287195917E-004
          14  -1.2836983582475744E-002
          15 -0.69056938384231714     
          16  0.13129150377747578     
Sym=     6a
Ene=  -0.57294881661391395     
Spin= Alpha
Occup=     2.00000000
           1  0.26653437074082748     
           2   3.3465223466528880E-002
           3  -1.3650008896227504E-002
           4  -6.7645083073522794E-002
           5 -0.12534623129987180     
           6  0.26179426775213083     
           7  -3.3768374244955171E-002
           8 -0.13440030619530333     
           9 -0.10775195839992914     
          10 -0.29562340038891544     
          11  -4.4714021933803721E-002
          12 -0.26236940496402766     
          13 -0.33750504782667329     
          14  0.55248330133822121     
          15  -6.3216202399528215E-002
          16 -0.27787221977491267     
Sym=     7a
Ene=  -0.48096462808309037     
Spin= Alpha
Occup=     2.00000000
           1  0.26384689704354553     
           2  0.11515160208662287     
           3   7.9908565995148506E-002
           4  0.49865534941027573     
           5 -0.23590549059604266     
           6  -1.7681075280291881E-002
           7   9.3555669502627434E-002
           8  0.55607256610576572     
           9   6.0814370331340829E-002
          10   4.1288962417854756E-002
          11   1.4487217498348160E-002
          12   8.9427680427177692E-002
          13   1.9418898895919138E-002
          14   5.3537194305076502E-002
          15  -5.9306102150149226E-002
          16 -0.34683482415621303     
Sym=     8a
Ene=  -0.47702552368924273     
Spin= Alpha
Occup=     2.00000000
           1   2.5579848373162043E-003
           2   1.7583125327945950E-002
           3  0.54246968945870366     
           4  -9.1670194806742475E-002
           5  -1.5352282282320912E-003
           6   1.7695309083876322E-002
           7  0.60086593328516236     
           8 -0.10150463142872110     
           9   8.8336891548132501E-004
          10   1.8075217488915487E-003
          11   9.4901770056442916E-002
          12  -1.6046768920605532E-002
          13   3.4539674289019168E-004
          14  -3.7794829830682421E-003
          15 -0.37021241200824517     
          16   6.2428425696971185E-002
Sym=     9a
Ene=  -0.43481468562228398     
Spin= Alpha
Occup=     1.00000000
           1 -0.57529446423990271     
           2 -0.68919615002115575     
           3   4.0503442492907805E-002
           4  0.10699232343818178     
           5   8.4588072124134134E-002
           6  0.20375917225377807     
           7   3.0492259666611607E-002
           8  0.20463150882778097     
           9 -0.13494596535030273     
          10 -0.14155142781234084     
          11   9.2540611117990675E-003
          12   4.5051807071108251E-002
          13  -2.0143113571821879E-002
          14  0.13990322950652753     
          15  -2.1927267889377537E-002
          16 -0.11942894492525208     
Sym=    10a
Ene=  -0.33729066619662618     
Spin= Alpha
Occup=     0.99848657
           1   4.8824193455773900E-002
           2  -7.2710342854120480E-002
           3  0.12190976440677463     
           4  0.63006781834791037     
           5  0.12816852578704979     
           6  -9.6301257248866595E-002
           7  -2.9234125895402089E-002
           8 -0.17027898094764057     
           9 -0.23334388206536058     
          10  -6.0941326721168955E-002
          11 -0.11274001955465018     
          12 -0.59118947531338739     
          13  -2.0462829493319519E-002
          14  -2.4692217884025237E-002
          15  0.10126053751448698     
          16  0.52332214255656961     
Sym=    11a
Ene=  -0.32495557035764006     
Spin= Alpha
Occup=     0.00151343
           1   4.3595576140178697E-004
           2  -2.3187209768409666E-002
           3 -0.64375157605220634     
           4  0.12349646070852613     
           5   1.0837434035354443E-003
           6   7.0993722732997904E-003
           7  0.22779595779409825     
           8  -4.3599326967875524E-002
           9  -3.8441180644718624E-004
          10   1.1112181790285253E-002
          11  0.62571005319371331     
          12 -0.11914787889798172     
          13   2.2098301344168335E-004
          14  -9.1899008985278380E-003
          15 -0.54126653144699532     
          16  0.10308512222530138     
Sym=    12a
Ene=  -0.16997677388421600     
Spin= Alpha
Occup=     0.00000000
           1   1.0223163169007529E-003
           2  -2.3144634205642792E-002
           3  0.10627037351539398     
           4  0.58559346191186445     
           5  0.18154394267485763     
           6   2.4339764923791841E-002
           7 -0.13766187815508618     
           8 -0.76066501700730615     
           9  0.12514723708971953     
          10  -7.0887738262474631E-002
          11  0.11017078359573818     
          12  0.61195698722289449     
          13  -2.1083972021867063E-002
          14  -1.4693562545153927E-003
          15  -6.0812803298170806E-002
          16 -0.34180629981903227     
Sym=    13a
Ene=  -0.14450670813280608     
Spin= Alpha
Occup=     0.00000000
           1  -6.0715354090927834E-004
           2  -1.3336868360295524E-002
           3 -0.56920809582907195     
           4  0.10066302249465062     
           5   5.8179672520032588E-003
           6   2.0579556295143617E-002
           7  0.80639371643961377     
           8 -0.14271041033525531     
           9  -6.9483954476586077E-003
          10  -1.3764560879478766E-002
          11 -0.65097056500415695     
          12  0.11989089467929499     
          13   1.4404137440347331E-003
          14   9.8844881569604779E-003
          15  0.34248709736846983     
          16  -6.2719194994271088E-002
Sym=    14a
Ene=   0.19957635747528363     
Spin= Alpha
Occup=     0.00000000
           1 -0.23698333902623722     
           2  0.46761511794393928     
           3  -1.4836306634375660E-002
           4  -2.1948069251980611E-002
           5  0.89141064525024349     
           6 -0.31017598838835464     
           7   4.4063326016447531E-002
           8  0.24351310298704365     
           9 -0.97575834757807056     
          10 -0.14292931774025555     
          11   6.5659818733021180E-002
          12  0.29457249931880797     
          13  0.31619957706744845     
          14  0.52162400682353682     
          15  -1.3873757912033860E-002
          16  -1.0189279743415824E-002
Sym=    15a
Ene=   0.80186095781052025     
Spin= Alpha
Occup=     0.00000000
           1  0.57981394537977238     
           2 -0.66292490569103557     
           3   2.7540836904778282E-003
           4 -0.10119528288718301     
           5 -0.80862850203385694     
           6 -0.50248596788193589     
           7  -3.8157991833489793E-002
           8 -0.29512372440742551     
           9 -0.57216542887376531     
          10  0.87915745609357754     
          11   2.2292286776980193E-002
          12  0.21281610157257302     
          13  0.65485204136208763     
          14  0.67654195806250350     
          15   1.4052483045086087E-002
          16  0.13444739053638247     
Sym=    16a
Ene=    1.1075199493221699     
Spin= Alpha
Occup=     0.00000000
           1 -0.69855592811425338     
           2  0.64341246260451457     
           3   1.9887539935448253E-002
           4  0.22580266160333415     
           5   2.7723788428700375E-003
           6   1.3016851399509544     
           7  -4.9129842940323930E-002
           8  -6.3957444359587473E-002
           9  0.22933937582520350     
          10   1.1015528345470711     
          11  -4.5404351181963946E-002
          12 -0.12849515077312973     
          13  0.49227584892947512     
          14  0.41431187307379880     
          15   2.4867626016120747E-002
          16  0.16888036412591328     
