 Entering Gaussian System
 *********************************************
 Gaussian 98:
 frequency output generated by the xtb code
 *********************************************
                         Standard orientation:
 --------------------------------------------------------------------
  Center     Atomic     Atomic              Coordinates (Angstroms)
  Number     Number      Type              X           Y           Z
 --------------------------------------------------------------------
    1          6             0        1.842183   -0.030803    0.101184
    2          6             0        0.626648   -0.040733   -0.164618
    3          6             0       -0.660404    0.047830    0.149535
    4          8             0       -1.808428    0.023705   -0.086102
 --------------------------------------------------------------------
     1 basis functions        1 primitive gaussians
     1 alpha electrons        1 beta electrons

 Harmonic frequencies (cm**-1), IR intensities (KM/Mole),
 Raman scattering activities (A**4/amu), Raman depolarization ratios,
 reduced masses (AMU), force constants (mDyne/A) and normal coordinates:
                      1                      2                      3
                        a                      a                      a 
 Frequencies --   192.3286               283.7144               365.0485
 Red. masses --    12.8769                12.9138                12.3724
 Frc consts  --     0.0000                 0.0000                 0.0000
 IR Inten    --     0.2374                 0.2387                 0.4754
 Raman Activ --     0.0000                 0.0000                 0.0000
 Depolar     --     0.0000                 0.0000                 0.0000
 Atom AN      X      Y      Z        X      Y      Z        X      Y      Z
   1   6     0.02   0.49  -0.09    -0.07   0.08   0.47    -0.28   0.05   0.24
   2   6    -0.01  -0.48   0.09     0.08  -0.06  -0.44    -0.09  -0.12  -0.64
   3   6    -0.01  -0.54   0.10     0.10  -0.13  -0.56     0.07   0.10   0.57
   4   8     0.00   0.46  -0.09    -0.09   0.10   0.46     0.26  -0.03  -0.15
                      4                      5                      6
                        a                      a                      a 
 Frequencies --   987.7949              1836.1397              2133.9495
 Red. masses --    13.2942                12.3542                12.9102
 Frc consts  --     0.0000                 0.0000                 0.0000
 IR Inten    --     0.1404                 1.4944                 2.1502
 Raman Activ --     0.0000                 0.0000                 0.0000
 Depolar     --     0.0000                 0.0000                 0.0000
 Atom AN      X      Y      Z        X      Y      Z        X      Y      Z
   1   6    -0.53  -0.00  -0.09     0.61   0.00   0.11    -0.17  -0.00  -0.04
   2   6    -0.41   0.05   0.26    -0.65   0.00  -0.11     0.40  -0.01   0.01
   3   6     0.29  -0.06  -0.25    -0.30  -0.00  -0.06    -0.76  -0.00  -0.09
   4   8     0.56   0.00   0.07     0.29   0.00   0.04     0.46   0.01   0.11
