      -----------------------------------------------------------      
     |                   =====================                   |     
     |                           x T B                           |     
     |                   =====================                   |     
     |                         S. Grimme                         |     
     |          Mulliken Center for Theoretical Chemistry        |     
     |                    University of Bonn                     |     
      -----------------------------------------------------------      

   * xtb version 6.2.2 (9d81278992624c895f80dd42a50cac0aa55982e2) compiled by '@Darwin' on 04/03/2020

   xtb is free software: you can redistribute it and/or modify it under
   the terms of the GNU Lesser General Public License as published by
   the Free Software Foundation, either version 3 of the License, or
   (at your option) any later version.
   
   xtb is distributed in the hope that it will be useful,
   but WITHOUT ANY WARRANTY; without even the implied warranty of
   MERCHANTABILITY or FITNESS FOR A PARTICULAR PURPOSE.  See the
   GNU Lesser General Public License for more details.
   
   Cite this work as:
   * S. Grimme, C. Bannwarth, P. Shushkov, J. Chem. Theory Comput., 2017,
     13, 1989-2009. DOI: 10.1021/acs.jctc.7b00118
   * C. Bannwarth, S. Ehlert and S. Grimme., J. Chem. Theory Comput., 2019,
     15, 1652-1671. DOI: 10.1021/acs.jctc.8b01176
   * P. Pracht, E. Caldeweyher, S. Ehlert, S. Grimme, ChemRxiv, 2019, preprint.
     DOI: 10.26434/chemrxiv.8326202.v1
   
   for DFT-D4:
   * E. Caldeweyher, C. Bannwarth and S. Grimme, J. Chem. Phys., 2017,
     147, 034112. DOI: 10.1063/1.4993215
   * E. Caldeweyher, S. Ehlert, A. Hansen, H. Neugebauer, S. Spicher,
     C. Bannwarth and S. Grimme, J. Chem. Phys., 2019, 150, 154122.
     DOI: 10.1063/1.5090222
   
   for sTDA-xTB:
   * S. Grimme and C. Bannwarth, J. Chem. Phys., 2016, 145, 054103.
     DOI: 10.1063/1.4959605
   
   in the mass-spec context:
   * V. Asgeirsson, C. Bauer and S. Grimme, Chem. Sci., 2017, 8, 4879.
     DOI: 10.1039/c7sc00601b
   
   for metadynamics refer to:
   * S. Grimme, J. Chem. Theory Comput., 2019, 155, 2847-2862
     DOI: 10.1021/acs.jctc.9b00143
   
   with help from (in alphabetical order)
   C. Bannwarth, F. Bohle, G. Brandenburg, E. Caldeweyher, M. Checinski,
   S. Dohm, S. Ehlert, S. Ehrlich, F. März, H. Neugebauer, J. Pisarek,
   P. Pracht, P. Shushkov, and S. Spicher.
   
 * started run on 2020/05/12 at 11:45:17.717     

           -------------------------------------------------
          |                Calculation Setup                |
           -------------------------------------------------

          program call               : xtb --input C3O1_1_S_2.input C3O1_1_S_2.xyz --ohess --molden --namespace C3O1_1_S_2 output.out
          calculation namespace      : C3O1_1_S_2
          coordinate file            : C3O1_1_S_2.xyz
          number of atoms            :                     4
          number of electrons        :                    18
          charge                     :                     0
          spin                       :                   1.0
          first test random number   :      0.44607783127703

   ID    Z sym.   atoms
    1    6 C      1-3
    2    8 O      4

           -------------------------------------------------
          |                 G F N 2 - x T B                 |
           -------------------------------------------------

        Reference                      10.1021/acs.jctc.8b01176
      * Hamiltonian:
        H0-scaling (s, p, d)           1.850000    2.230000    2.230000
        zeta-weighting                 0.500000
      * Dispersion:
        s8                             2.700000
        a1                             0.520000
        a2                             5.000000
        s9                             5.000000
      * Repulsion:
        kExp                           1.500000    1.000000
        rExp                           1.000000
      * Coulomb:
        alpha                          2.000000
        third order                    shell-resolved
        anisotropic                    true
        a3                             3.000000
        a5                             4.000000
        cn-shift                       1.200000
        cn-exp                         4.000000
        max-rad                        5.000000


          ...................................................
          :                      SETUP                      :
          :.................................................:
          :  # basis functions                  16          :
          :  # atomic orbitals                  16          :
          :  # shells                            8          :
          :  # electrons                        18          :
          :  max. iterations                   250          :
          :  Hamiltonian                  GFN2-xTB          :
          :  restarted?                      false          :
          :  GBSA solvation                  false          :
          :  PC potential                    false          :
          :  electronic temp.          300.0000000     K    :
          :  accuracy                    1.0000000          :
          :  -> integral cutoff          0.2500000E+02      :
          :  -> integral neglect         0.1000000E-07      :
          :  -> SCF convergence          0.1000000E-05 Eh   :
          :  -> wf. convergence          0.1000000E-03 e    :
          :  Broyden damping             0.4000000          :
          ...................................................

 iter      E             dE          RMSdq      gap      omega  full diag
   1    -10.0000164 -0.100000E+02  0.106E+01    1.71       0.0  T
   2     -9.5173276  0.482689E+00  0.100E+01    1.30       1.0  T
   3     -9.1972331  0.320095E+00  0.109E+01    1.66       1.0  T
   4     -9.9710655 -0.773832E+00  0.514E+00    1.34       1.0  T
   5    -10.0753750 -0.104310E+00  0.272E+00    1.54       1.0  T
   6    -10.0772765 -0.190144E-02  0.242E+00    1.51       1.0  T
   7    -10.0719215  0.535502E-02  0.144E+00    1.59       1.0  T
   8    -10.0783904 -0.646894E-02  0.305E-01    1.50       1.0  T
   9    -10.0785583 -0.167873E-03  0.166E-01    1.50       1.0  T
  10    -10.0786875 -0.129201E-03  0.158E-01    1.49       1.0  T
  11    -10.0786922 -0.475751E-05  0.217E-02    1.49       2.3  T
  12    -10.0786965 -0.428540E-05  0.616E-03    1.49       8.1  T
  13    -10.0786966 -0.482904E-07  0.386E-03    1.49      13.0  T
  14    -10.0786966 -0.182174E-08  0.156E-03    1.49      32.0  T
  15    -10.0786966 -0.376390E-08  0.180E-04    1.49     278.1  T
  16    -10.0786966 -0.604850E-10  0.524E-05    1.49     955.0  T

   *** convergence criteria satisfied after 16 iterations ***

         #    Occupation            Energy/Eh            Energy/eV
      -------------------------------------------------------------
         1        2.0000           -0.7523735             -20.4731
       ...           ...                  ...                  ...
         4        2.0000           -0.6075324             -16.5318
         5        2.0000           -0.5688114             -15.4781
         6        2.0000           -0.5593866             -15.2217
         7        2.0000           -0.5349957             -14.5580
         8        1.9283           -0.4821572             -13.1202
         9        1.0717           -0.4772926             -12.9878
        10        1.0000           -0.4414443             -12.0123 (HOMO)
        11                         -0.3866703             -10.5218 (LUMO)
        12                         -0.3693365             -10.0502
        13                         -0.3364308              -9.1547
        14                          0.0452196               1.2305
        15                          0.0606257               1.6497
        16                          0.0730454               1.9877
      -------------------------------------------------------------
                  HL-Gap            0.0547740 Eh            1.4905 eV
             Fermi-level           -0.4468911 Eh          -12.1605 eV

 transition dipole moment (au) for excitation:           9          10
     X       Y       Z   
  -0.6865   0.2187  -0.0569  total (au/Debye):    0.723   1.837
 dE (eV)             :    0.975
 oscillator strength :  0.17651E-01

 SCC (total)                   0 d,  0 h,  0 min,  0.005 sec
 SCC setup                      ...        0 min,  0.000 sec (  1.926%)
 Dispersion                     ...        0 min,  0.000 sec (  0.312%)
 integral evaluation            ...        0 min,  0.001 sec ( 21.734%)
 zeroth order Hamiltonian       ...        0 min,  0.000 sec (  0.447%)
 iterations                     ...        0 min,  0.002 sec ( 33.429%)
 molecular gradient             ...        0 min,  0.001 sec ( 24.391%)
 printout                       ...        0 min,  0.001 sec ( 17.482%)

         :::::::::::::::::::::::::::::::::::::::::::::::::::::
         ::                     SUMMARY                     ::
         :::::::::::::::::::::::::::::::::::::::::::::::::::::
         :: total energy             -10.041247950297 Eh    ::
         :: gradient norm              0.337347356500 Eh/a0 ::
         :: HOMO-LUMO gap              1.490477090112 eV    ::
         ::.................................................::
         :: SCC energy               -10.078696571927 Eh    ::
         :: -> isotropic ES           -0.000247386562 Eh    ::
         :: -> anisotropic ES         -0.001251979305 Eh    ::
         :: -> anisotropic XC          0.006828696344 Eh    ::
         :: -> dispersion             -0.001696138754 Eh    ::
         :: repulsion energy           0.037448591675 Eh    ::
         :: add. restraining           0.000000000000 Eh    ::
         :::::::::::::::::::::::::::::::::::::::::::::::::::::

      ----------------------------------------------------------- 
     |                   =====================                   |
     |                        A N C O P T                        |
     |                   =====================                   |
     |               Approximate Normal Coordinate               |
     |                Rational Function Optimizer                |
      ----------------------------------------------------------- 

          ...................................................
          :                      SETUP                      :
          :.................................................:
          :   optimization level            normal          :
          :   max. optcycles                   200          :
          :   ANC micro-cycles                  20          :
          :   degrees of freedom                 6          :
          :.................................................:
          :   RF solver                   davidson          :
          :   write xtbopt.log                true          :
          :   linear?                        false          :
          :   energy convergence         0.5000000E-05 Eh   :
          :   grad. convergence          0.1000000E-02 Eh/α :
          :   maximium RF displ.         1.0000000          :
          :   Hlow (freq-cutoff)         0.1000000E-01      :
          :   Hmax (freq-cutoff)         5.0000000          :
          :   S6 in model hess.         20.0000000          :
          ...................................................

generating ANC from model Hessian ...
Using Lindh-Hessian (1995)
 Shifting diagonal of input Hessian by    4.4001106157239012E-004
 Lowest  eigenvalues of input Hessian
   -0.000000   -0.000000   -0.000000   -0.000000    0.000000    0.000000
    0.010000    0.057586    0.122579    0.674523    0.922187    1.227288
 Highest eigenvalues
    0.010000    0.057586    0.122579    0.674523    0.922187    1.227288


........................................................................
.............................. CYCLE    1 ..............................
........................................................................
   1    -10.0786966 -0.100787E+02  0.296E-05    1.49       0.0  T
   2    -10.0786966  0.334168E-10  0.650E-05    1.49     769.3  T
   3    -10.0786966 -0.320277E-10  0.271E-05    1.49    1845.7  T
     SCC iter.                  ...        0 min,  0.001 sec
     gradient                   ...        0 min,  0.001 sec
 * total energy  :   -10.0412480 Eh     change        0.1197424E-09 Eh
   gradient norm :     0.3373475 Eh/α   predicted     0.0000000E+00 (-100.00%)
   displ. norm   :     0.3708587 α      lambda       -0.1197820E+00
   maximum displ.:     0.3237624 α      in ANC's #4, #6, #2, ...

........................................................................
.............................. CYCLE    2 ..............................
........................................................................
   1    -10.2162600 -0.102163E+02  0.367E+00    1.45       0.0  T
   2    -10.1105707  0.105689E+00  0.452E+00    1.76       1.0  T
   3    -10.2035573 -0.929866E-01  0.280E+00    1.50       1.0  T
   4    -10.2322954 -0.287381E-01  0.126E+00    1.48       1.0  T
   5    -10.2372884 -0.499296E-02  0.382E-01    1.53       1.0  T
   6    -10.2374131 -0.124728E-03  0.268E-01    1.53       1.0  T
   7    -10.2376897 -0.276571E-03  0.578E-02    1.54       1.0  T
   8    -10.2376973 -0.762930E-05  0.274E-02    1.54       1.8  T
   9    -10.2376981 -0.837913E-06  0.463E-03    1.54      10.8  T
  10    -10.2376982 -0.385335E-07  0.119E-03    1.54      42.2  T
  11    -10.2376982 -0.359233E-08  0.200E-04    1.54     249.4  T
  12    -10.2376982 -0.671871E-10  0.483E-05    1.54    1034.7  T
     SCC iter.                  ...        0 min,  0.001 sec
     gradient                   ...        0 min,  0.001 sec
 * total energy  :   -10.1436900 Eh     change       -0.1024421E+00 Eh
   gradient norm :     0.2221320 Eh/α   predicted    -0.6812817E-01 ( -33.50%)
   displ. norm   :     0.6138094 α      lambda       -0.1218321E+00
   maximum displ.:     0.4310740 α      in ANC's #4, #6, #1, ...

........................................................................
.............................. CYCLE    3 ..............................
........................................................................
   1    -10.4651507 -0.104652E+02  0.415E+00    1.95       0.0  T
   2    -10.4661414 -0.990658E-03  0.260E+00    1.91       1.0  T
   3    -10.4548349  0.113065E-01  0.224E+00    1.89       1.0  T
   4    -10.4735895 -0.187547E-01  0.397E-01    1.90       1.0  T
   5    -10.4738024 -0.212920E-03  0.139E-01    1.89       1.0  T
   6    -10.4738270 -0.245063E-04  0.320E-02    1.89       1.6  T
   7    -10.4738293 -0.230148E-05  0.104E-02    1.89       4.8  T
   8    -10.4738298 -0.531325E-06  0.248E-03    1.89      20.2  T
   9    -10.4738298 -0.236485E-08  0.577E-04    1.89      86.7  T
  10    -10.4738298 -0.111710E-08  0.130E-04    1.89     383.3  T
     SCC iter.                  ...        0 min,  0.001 sec
     gradient                   ...        0 min,  0.001 sec
 * total energy  :   -10.0858341 Eh     change        0.5785590E-01 Eh
   gradient norm :     0.8281266 Eh/α   predicted    -0.8386693E-01 (-244.96%)
   displ. norm   :     0.3532707 α      lambda       -0.2646242E+00
   maximum displ.:     0.2103496 α      in ANC's #4, #5, #1, ...

........................................................................
.............................. CYCLE    4 ..............................
........................................................................
   1    -10.3305516 -0.103306E+02  0.222E+00    1.45       0.0  T
   2    -10.3217236  0.882801E-02  0.191E+00    1.34       1.0  T
   3    -10.3212273  0.496347E-03  0.164E+00    1.47       1.0  T
   4    -10.3339763 -0.127491E-01  0.509E-01    1.42       1.0  T
   5    -10.3347461 -0.769708E-03  0.116E-01    1.41       1.0  T
   6    -10.3347423  0.372398E-05  0.798E-02    1.42       1.0  T
   7    -10.3347701 -0.277975E-04  0.160E-02    1.41       3.1  T
   8    -10.3347712 -0.111334E-05  0.458E-03    1.41      10.9  T
   9    -10.3347712 -0.120478E-07  0.362E-04    1.41     138.0  T
  10    -10.3347712 -0.101714E-09  0.116E-04    1.41     432.9  T
     SCC iter.                  ...        0 min,  0.001 sec
     gradient                   ...        0 min,  0.001 sec
 * total energy  :   -10.1824036 Eh     change       -0.9656945E-01 Eh
   gradient norm :     0.0693302 Eh/α   predicted    -0.1488247E+00 (  54.11%)
   displ. norm   :     0.6619404 α      lambda       -0.1643760E-01
   maximum displ.:     0.5927594 α      in ANC's #1, #2, #4, ...

........................................................................
.............................. CYCLE    5 ..............................
........................................................................
   1    -10.3128044 -0.103128E+02  0.226E+00    0.87       0.0  T
   2    -10.2977147  0.150897E-01  0.201E+00    0.82       1.0  T
   3    -10.2968746  0.840043E-03  0.198E+00    0.88       1.0  T
   4    -10.3159646 -0.190900E-01  0.389E-01    0.85       1.0  T
   5    -10.3166954 -0.730804E-03  0.783E-02    0.84       1.0  T
   6    -10.3166967 -0.132105E-05  0.422E-02    0.84       1.2  T
   7    -10.3166974 -0.693999E-06  0.180E-02    0.84       2.8  T
   8    -10.3166988 -0.131650E-05  0.491E-03    0.84      10.2  T
   9    -10.3166988 -0.863419E-08  0.369E-04    0.84     135.5  T
  10    -10.3166988  0.160760E-11  0.205E-04    0.84     244.0  T
     SCC iter.                  ...        0 min,  0.001 sec
     gradient                   ...        0 min,  0.001 sec
 * total energy  :   -10.1861958 Eh     change       -0.3792177E-02 Eh
   gradient norm :     0.1651131 Eh/α   predicted    -0.1181999E-01 ( 211.69%)
   displ. norm   :     0.4120015 α      lambda       -0.2670587E-01
   maximum displ.:     0.3722336 α      in ANC's #2, #1, #6, ...

........................................................................
.............................. CYCLE    6 ..............................
........................................................................
   1    -10.3159438 -0.103159E+02  0.235E+00    0.46       0.0  T
   2    -10.2952164  0.207275E-01  0.260E+00    0.53       1.0  T
   3    -10.3225833 -0.273669E-01  0.151E+00    0.47       1.0  T
   4    -10.3308903 -0.830703E-02  0.818E-01    0.48       1.0  T
   5    -10.3321907 -0.130042E-02  0.192E-01    0.47       1.0  T
   6    -10.3323016 -0.110905E-03  0.696E-02    0.46       1.0  T
   7    -10.3323051 -0.347580E-05  0.431E-02    0.46       1.2  T
   8    -10.3323095 -0.442040E-05  0.485E-03    0.46      10.3  T
   9    -10.3323095  0.807391E-08  0.143E-03    0.46      35.0  T
  10    -10.3323095 -0.123767E-07  0.307E-04    0.46     162.7  T
  11    -10.3323095 -0.524771E-10  0.356E-05    0.46    1405.3  T
     SCC iter.                  ...        0 min,  0.001 sec
     gradient                   ...        0 min,  0.001 sec
 * total energy  :   -10.1820005 Eh     change        0.4195301E-02 Eh
   gradient norm :     0.1761578 Eh/α   predicted    -0.1561953E-01 (-472.31%)
   displ. norm   :     0.3260955 α      lambda       -0.2846006E-01
   maximum displ.:     0.3162704 α      in ANC's #2, #3, #6, ...

........................................................................
.............................. CYCLE    7 ..............................
........................................................................
   1    -10.3646246 -0.103646E+02  0.120E+00    0.76       0.0  T
   2    -10.3630698  0.155481E-02  0.110E+00    0.74       1.0  T
   3    -10.3654561 -0.238632E-02  0.719E-01    0.76       1.0  T
   4    -10.3666961 -0.123998E-02  0.460E-01    0.75       1.0  T
   5    -10.3674526 -0.756501E-03  0.352E-02    0.76       1.4  T
   6    -10.3674554 -0.287623E-05  0.174E-02    0.76       2.9  T
   7    -10.3674558 -0.379339E-06  0.489E-03    0.76      10.2  T
   8    -10.3674559 -0.449495E-07  0.941E-04    0.76      53.1  T
   9    -10.3674559 -0.208313E-09  0.918E-05    0.76     544.4  T
     SCC iter.                  ...        0 min,  0.001 sec
     gradient                   ...        0 min,  0.001 sec
 * total energy  :   -10.1969674 Eh     change       -0.1496689E-01 Eh
   gradient norm :     0.0278430 Eh/α   predicted    -0.1574322E-01 (   5.19%)
   displ. norm   :     0.2941174 α      lambda       -0.5161450E-02
   maximum displ.:     0.2743128 α      in ANC's #1, #4, #2, ...

........................................................................
.............................. CYCLE    8 ..............................
........................................................................
   1    -10.3524854 -0.103525E+02  0.113E+00    0.60       0.0  T
   2    -10.3491851  0.330027E-02  0.101E+00    0.59       1.0  T
   3    -10.3499553 -0.770159E-03  0.901E-01    0.60       1.0  T
   4    -10.3534871 -0.353183E-02  0.207E-01    0.59       1.0  T
   5    -10.3536335 -0.146405E-03  0.359E-02    0.59       1.4  T
   6    -10.3536335 -0.237486E-07  0.177E-02    0.59       2.8  T
   7    -10.3536346 -0.102314E-05  0.381E-03    0.59      13.1  T
   8    -10.3536346 -0.270496E-07  0.199E-03    0.59      25.1  T
   9    -10.3536346 -0.107692E-08  0.130E-04    0.59     384.4  T
  10    -10.3536346 -0.525269E-11  0.265E-05    0.59    1887.8  T
     SCC iter.                  ...        0 min,  0.001 sec
     gradient                   ...        0 min,  0.001 sec
 * total energy  :   -10.1984730 Eh     change       -0.1505646E-02 Eh
   gradient norm :     0.1003294 Eh/α   predicted    -0.2803970E-02 (  86.23%)
   displ. norm   :     0.0570502 α      lambda       -0.3809974E-02
   maximum displ.:     0.0306085 α      in ANC's #3, #4, #6, ...

........................................................................
.............................. CYCLE    9 ..............................
........................................................................
   1    -10.3695017 -0.103695E+02  0.419E-01    0.57       0.0  T
   2    -10.3691284  0.373277E-03  0.366E-01    0.57       1.0  T
   3    -10.3693132 -0.184777E-03  0.302E-01    0.56       1.0  T
   4    -10.3696861 -0.372888E-03  0.103E-01    0.56       1.0  T
   5    -10.3697090 -0.229699E-04  0.201E-02    0.56       2.5  T
   6    -10.3697092 -0.151911E-06  0.135E-02    0.56       3.7  T
   7    -10.3697098 -0.606128E-06  0.951E-04    0.56      52.6  T
   8    -10.3697098 -0.544844E-10  0.596E-04    0.56      83.8  T
     SCC iter.                  ...        0 min,  0.001 sec
     gradient                   ...        0 min,  0.001 sec
 * total energy  :   -10.2012469 Eh     change       -0.2773930E-02 Eh
   gradient norm :     0.0488463 Eh/α   predicted    -0.1911186E-02 ( -31.10%)
   displ. norm   :     0.2042125 α      lambda       -0.4401229E-02
   maximum displ.:     0.1421344 α      in ANC's #1, #4, #6, ...

........................................................................
.............................. CYCLE   10 ..............................
........................................................................
   1    -10.3853393 -0.103853E+02  0.849E-01    0.46       0.0  T
   2    -10.3849088  0.430448E-03  0.608E-01    0.47       1.0  T
   3    -10.3835642  0.134461E-02  0.645E-01    0.46       1.0  T
   4    -10.3857108 -0.214656E-02  0.212E-01    0.46       1.0  T
   5    -10.3858367 -0.125889E-03  0.248E-02    0.46       2.0  T
   6    -10.3858366  0.748312E-07  0.171E-02    0.46       2.9  T
   7    -10.3858371 -0.466292E-06  0.297E-03    0.46      16.8  T
   8    -10.3858371 -0.206856E-07  0.122E-03    0.46      41.0  T
   9    -10.3858371 -0.227711E-08  0.834E-05    0.46     599.5  T
  10    -10.3858371 -0.211386E-11  0.101E-05    0.46    4928.7  T
     SCC iter.                  ...        0 min,  0.001 sec
     gradient                   ...        0 min,  0.001 sec
 * total energy  :   -10.2043035 Eh     change       -0.3056617E-02 Eh
   gradient norm :     0.0189583 Eh/α   predicted    -0.2292388E-02 ( -25.00%)
   displ. norm   :     0.4596009 α      lambda       -0.5408009E-02
   maximum displ.:     0.3302403 α      in ANC's #1, #4, #6, ...

........................................................................
.............................. CYCLE   11 ..............................
........................................................................
   1    -10.3605631 -0.103606E+02  0.176E+00    0.22       0.0  T
   2    -10.3544546  0.610857E-02  0.154E+00    0.22       1.0  T
   3    -10.3567871 -0.233257E-02  0.124E+00    0.21       1.0  T
   4    -10.3629920 -0.620489E-02  0.254E-01    0.21       1.0  T
   5    -10.3632397 -0.247644E-03  0.713E-02    0.21       1.0  T
   6    -10.3632414 -0.170060E-05  0.216E-02    0.21       2.3  T
   7    -10.3632417 -0.357942E-06  0.119E-02    0.21       4.2  T
   8    -10.3632421 -0.367616E-06  0.476E-03    0.21      10.5  T
   9    -10.3632421 -0.108560E-07  0.545E-04    0.21      91.7  T
  10    -10.3632421 -0.323510E-09  0.384E-05    0.21    1302.4  T
     SCC iter.                  ...        0 min,  0.001 sec
     gradient                   ...        0 min,  0.001 sec
 * total energy  :   -10.2036985 Eh     change        0.6050482E-03 Eh
   gradient norm :     0.0887009 Eh/α   predicted    -0.3275180E-02 (-641.31%)
   displ. norm   :     0.2045715 α      lambda       -0.6702002E-02
   maximum displ.:     0.1407736 α      in ANC's #1, #2, #4, ...

........................................................................
.............................. CYCLE   12 ..............................
........................................................................
   1    -10.3857038 -0.103857E+02  0.926E-01    0.32       0.0  T
   2    -10.3828954  0.280835E-02  0.100E+00    0.32       1.0  T
   3    -10.3868749 -0.397944E-02  0.495E-01    0.32       1.0  T
   4    -10.3872646 -0.389701E-03  0.207E-01    0.32       1.0  T
   5    -10.3873852 -0.120639E-03  0.304E-02    0.32       1.6  T
   6    -10.3873850  0.199727E-06  0.190E-02    0.32       2.6  T
   7    -10.3873858 -0.798925E-06  0.348E-03    0.32      14.4  T
   8    -10.3873858 -0.300877E-08  0.171E-03    0.32      29.3  T
   9    -10.3873858 -0.896206E-09  0.171E-04    0.32     292.9  T
  10    -10.3873858 -0.291784E-10  0.116E-05    0.32    4312.5  T
     SCC iter.                  ...        0 min,  0.001 sec
     gradient                   ...        0 min,  0.001 sec
 * total energy  :   -10.2066163 Eh     change       -0.2917815E-02 Eh
   gradient norm :     0.0114635 Eh/α   predicted    -0.3491241E-02 (  19.65%)
   displ. norm   :     0.0969219 α      lambda       -0.6296014E-03
   maximum displ.:     0.0691969 α      in ANC's #1, #4, #6, ...

........................................................................
.............................. CYCLE   13 ..............................
........................................................................
   1    -10.3879921 -0.103880E+02  0.366E-01    0.31       0.0  T
   2    -10.3879917  0.330969E-06  0.224E-01    0.31       1.0  T
   3    -10.3878092  0.182580E-03  0.181E-01    0.31       1.0  T
   4    -10.3879974 -0.188215E-03  0.269E-02    0.31       1.9  T
   5    -10.3880006 -0.326504E-05  0.121E-02    0.31       4.1  T
   6    -10.3880008 -0.193422E-06  0.229E-03    0.31      21.8  T
   7    -10.3880008 -0.721295E-08  0.128E-03    0.31      39.1  T
   8    -10.3880008 -0.115393E-08  0.239E-04    0.31     209.3  T
   9    -10.3880008 -0.592486E-10  0.617E-05    0.31     810.7  T
     SCC iter.                  ...        0 min,  0.001 sec
     gradient                   ...        0 min,  0.001 sec
 * total energy  :   -10.2071129 Eh     change       -0.4966001E-03 Eh
   gradient norm :     0.0183290 Eh/α   predicted    -0.3177561E-03 ( -36.01%)
   displ. norm   :     0.2137395 α      lambda       -0.1188742E-02
   maximum displ.:     0.1429010 α      in ANC's #1, #4, #6, ...

........................................................................
.............................. CYCLE   14 ..............................
........................................................................
   1    -10.3860816 -0.103861E+02  0.853E-01    0.29       0.0  T
   2    -10.3858559  0.225785E-03  0.561E-01    0.29       1.0  T
   3    -10.3830006  0.285527E-02  0.731E-01    0.29       1.0  T
   4    -10.3862312 -0.323066E-02  0.725E-02    0.29       1.0  T
   5    -10.3862464 -0.151409E-04  0.294E-02    0.29       1.7  T
   6    -10.3862466 -0.196423E-06  0.753E-03    0.29       6.6  T
   7    -10.3862467 -0.849276E-07  0.389E-03    0.29      12.9  T
   8    -10.3862467 -0.167619E-07  0.139E-03    0.29      35.9  T
   9    -10.3862467 -0.159437E-08  0.147E-04    0.29     339.4  T
  10    -10.3862467 -0.713563E-11  0.701E-06    0.29    7134.4  T
     SCC iter.                  ...        0 min,  0.001 sec
     gradient                   ...        0 min,  0.001 sec
 * total energy  :   -10.2076342 Eh     change       -0.5212840E-03 Eh
   gradient norm :     0.0255247 Eh/α   predicted    -0.6215225E-03 (  19.23%)
   displ. norm   :     0.0224547 α      lambda       -0.3679477E-03
   maximum displ.:     0.0160348 α      in ANC's #1, #2, #3, ...

........................................................................
.............................. CYCLE   15 ..............................
........................................................................
   1    -10.3915688 -0.103916E+02  0.153E-01    0.30       0.0  T
   2    -10.3914301  0.138738E-03  0.205E-01    0.30       1.0  T
   3    -10.3916593 -0.229199E-03  0.653E-02    0.30       1.0  T
   4    -10.3916628 -0.349827E-05  0.374E-02    0.30       1.3  T
   5    -10.3916650 -0.224951E-05  0.438E-03    0.30      11.4  T
   6    -10.3916650  0.628978E-08  0.320E-03    0.30      15.6  T
   7    -10.3916650 -0.244301E-07  0.678E-04    0.30      73.8  T
   8    -10.3916650 -0.409658E-09  0.347E-04    0.30     144.1  T
     SCC iter.                  ...        0 min,  0.001 sec
     gradient                   ...        0 min,  0.001 sec
 * total energy  :   -10.2078262 Eh     change       -0.1919834E-03 Eh
   gradient norm :     0.0019213 Eh/α   predicted    -0.1840650E-03 (  -4.12%)
   displ. norm   :     0.0695970 α      lambda       -0.6986407E-04
   maximum displ.:     0.0430648 α      in ANC's #1, #6, #4, ...

........................................................................
.............................. CYCLE   16 ..............................
........................................................................
   1    -10.3913010 -0.103913E+02  0.251E-01    0.32       0.0  T
   2    -10.3913018 -0.825055E-06  0.155E-01    0.32       1.0  T
   3    -10.3912566  0.452355E-04  0.838E-02    0.32       1.0  T
   4    -10.3913039 -0.473390E-04  0.128E-02    0.32       3.9  T
   5    -10.3913042 -0.326278E-06  0.666E-03    0.32       7.5  T
   6    -10.3913043 -0.383935E-07  0.130E-03    0.32      38.4  T
   7    -10.3913043 -0.866352E-09  0.765E-04    0.32      65.4  T
   8    -10.3913043 -0.414149E-09  0.132E-04    0.32     377.6  T
     SCC iter.                  ...        0 min,  0.001 sec
     gradient                   ...        0 min,  0.001 sec
 * total energy  :   -10.2078687 Eh     change       -0.4255834E-04 Eh
   gradient norm :     0.0051204 Eh/α   predicted    -0.3500852E-04 ( -17.74%)
   displ. norm   :     0.0087049 α      lambda       -0.2141438E-04
   maximum displ.:     0.0060680 α      in ANC's #2, #6, #4, ...

........................................................................
.............................. CYCLE   17 ..............................
........................................................................
   1    -10.3923396 -0.103923E+02  0.521E-02    0.33       0.0  T
   2    -10.3923387  0.895469E-06  0.360E-02    0.33       1.4  T
   3    -10.3923362  0.252552E-05  0.353E-02    0.33       1.4  T
   4    -10.3923420 -0.578054E-05  0.139E-02    0.33       3.6  T
   5    -10.3923426 -0.550719E-06  0.165E-03    0.33      30.3  T
   6    -10.3923426 -0.274287E-08  0.918E-04    0.33      54.5  T
   7    -10.3923426 -0.823414E-09  0.193E-04    0.33     259.1  T
     SCC iter.                  ...        0 min,  0.001 sec
     gradient                   ...        0 min,  0.001 sec
 * total energy  :   -10.2078756 Eh     change       -0.6846141E-05 Eh
   gradient norm :     0.0016110 Eh/α   predicted    -0.1070690E-04 (  56.39%)
   displ. norm   :     0.0083843 α      lambda       -0.4657638E-05
   maximum displ.:     0.0048093 α      in ANC's #4, #2, #6, ...

........................................................................
.............................. CYCLE   18 ..............................
........................................................................
   1    -10.3917382 -0.103917E+02  0.402E-02    0.33       0.0  T
   2    -10.3917375  0.649561E-06  0.283E-02    0.33       1.8  T
   3    -10.3917350  0.252150E-05  0.290E-02    0.33       1.7  T
   4    -10.3917390 -0.404109E-05  0.852E-03    0.33       5.9  T
   5    -10.3917393 -0.256086E-06  0.133E-03    0.33      37.5  T
   6    -10.3917393  0.359597E-09  0.547E-04    0.33      91.3  T
   7    -10.3917393 -0.980110E-09  0.134E-04    0.33     372.1  T
     SCC iter.                  ...        0 min,  0.001 sec
     gradient                   ...        0 min,  0.001 sec
 * total energy  :   -10.2078783 Eh     change       -0.2683148E-05 Eh
   gradient norm :     0.0016728 Eh/α   predicted    -0.2329734E-05 ( -13.17%)
   displ. norm   :     0.0030143 α      lambda       -0.1261386E-05
   maximum displ.:     0.0020206 α      in ANC's #2, #6, #4, ...

........................................................................
.............................. CYCLE   19 ..............................
........................................................................
   1    -10.3917269 -0.103917E+02  0.175E-02    0.33       0.0  T
   2    -10.3917269 -0.867696E-08  0.105E-02    0.33       4.8  T
   3    -10.3917263  0.629371E-06  0.108E-02    0.33       4.6  T
   4    -10.3917269 -0.648901E-06  0.337E-03    0.33      14.8  T
   5    -10.3917270 -0.488883E-07  0.650E-04    0.33      76.9  T
   6    -10.3917270  0.720011E-10  0.248E-04    0.33     201.8  T
     SCC iter.                  ...        0 min,  0.001 sec
     gradient                   ...        0 min,  0.001 sec
 * total energy  :   -10.2078798 Eh     change       -0.1538035E-05 Eh
   gradient norm :     0.0010809 Eh/α   predicted    -0.6291689E-06 ( -59.09%)
   displ. norm   :     0.0083431 α      lambda       -0.3113085E-05
   maximum displ.:     0.0041044 α      in ANC's #6, #2, #3, ...

........................................................................
.............................. CYCLE   20 ..............................
........................................................................
   1    -10.3916185 -0.103916E+02  0.590E-02    0.34       0.0  T
   2    -10.3916186 -0.131286E-06  0.343E-02    0.34       1.5  T
   3    -10.3916155  0.310396E-05  0.227E-02    0.34       2.2  T
   4    -10.3916185 -0.298014E-05  0.874E-03    0.34       5.7  T
   5    -10.3916188 -0.354182E-06  0.213E-03    0.34      23.5  T
   6    -10.3916188 -0.467207E-09  0.556E-04    0.34      90.0  T
   7    -10.3916188 -0.870456E-09  0.186E-04    0.34     268.7  T
     SCC iter.                  ...        0 min,  0.001 sec
     gradient                   ...        0 min,  0.001 sec
 * total energy  :   -10.2078832 Eh     change       -0.3358318E-05 Eh
   gradient norm :     0.0007405 Eh/α   predicted    -0.1558440E-05 ( -53.59%)
   displ. norm   :     0.0119854 α      lambda       -0.3449865E-05
   maximum displ.:     0.0070534 α      in ANC's #3, #6, #5, ...

   *** GEOMETRY OPTIMIZATION CONVERGED AFTER 20 ITERATIONS ***

------------------------------------------------------------------------
 total energy gain   :        -0.1666352 Eh     -104.5652 kcal/mol
 total RMSD          :         1.1826179 a0        0.6258 Å
 total power (kW/mol):       -21.8750349 (step)-7099.9792 (real)
------------------------------------------------------------------------

 ANCopt (total)                0 d,  0 h,  0 min,  0.062 sec
 optimizer setup                ...        0 min,  0.000 sec (  0.118%)
 model hessian                  ...        0 min,  0.000 sec (  0.133%)
 ANC generation                 ...        0 min,  0.000 sec (  0.086%)
 coordinate transformation      ...        0 min,  0.000 sec (  0.086%)
 single point calculation       ...        0 min,  0.060 sec ( 96.778%)
 optimization log               ...        0 min,  0.001 sec (  0.879%)
 hessian update                 ...        0 min,  0.000 sec (  0.077%)
 rational function              ...        0 min,  0.000 sec (  0.782%)

================
 final structure:
================
4
 xtb: 6.2.2 (9d81278992624c895f80dd42a50cac0aa55982e2)
C         1.84218322642663   -0.03079303385303    0.10118994079124
C         0.62664919780531   -0.04072933657280   -0.16461618814610
C        -0.66040499595498    0.04782671521614    0.14953323915288
O        -1.80842742827695    0.02369565520969   -0.08610799179800

 Bond Distances (Angstroems)
 ---------------------------
C1-C2=1.2443         C2-C1=1.2443         C2-C3=1.3278         C3-C2=1.3278         C3-O4=1.1722         O4-C3=1.1722         
 C  C  Rav=1.2860 sigma=0.0417  Rmin=1.2443  Rmax=1.3278     2
 O  C  Rav=1.1722 sigma=0.0000  Rmin=1.1722  Rmax=1.1722     1

 selected bond angles (degree)
 --------------------
C3-C2-C1=153.62                O4-C3-C2=154.21                

 selected dihedral angles (degree)
 ---------------------------------
O4-C3-C2-C1=181.92            
           -------------------------------------------------
          |                Final Singlepoint                |
           -------------------------------------------------

          ...................................................
          :                      SETUP                      :
          :.................................................:
          :  # basis functions                  16          :
          :  # atomic orbitals                  16          :
          :  # shells                            8          :
          :  # electrons                        18          :
          :  max. iterations                   250          :
          :  Hamiltonian                  GFN2-xTB          :
          :  restarted?                      false          :
          :  GBSA solvation                  false          :
          :  PC potential                    false          :
          :  electronic temp.          300.0000000     K    :
          :  accuracy                    1.0000000          :
          :  -> integral cutoff          0.2500000E+02      :
          :  -> integral neglect         0.1000000E-07      :
          :  -> SCF convergence          0.1000000E-05 Eh   :
          :  -> wf. convergence          0.1000000E-03 e    :
          :  Broyden damping             0.4000000          :
          ...................................................

 iter      E             dE          RMSdq      gap      omega  full diag
   1    -10.3916188 -0.103916E+02  0.320E-05    0.34       0.0  T
   2    -10.3916188  0.146194E-11  0.299E-05    0.34    1670.3  T
   3    -10.3916188 -0.108535E-11  0.181E-05    0.34    2769.2  T

   *** convergence criteria satisfied after 3 iterations ***

         #    Occupation            Energy/Eh            Energy/eV
      -------------------------------------------------------------
         1        2.0000           -0.7700278             -20.9535
       ...           ...                  ...                  ...
         4        2.0000           -0.5995243             -16.3139
         5        2.0000           -0.5945698             -16.1791
         6        2.0000           -0.5729488             -15.5907
         7        2.0000           -0.4809646             -13.0877
         8        2.0000           -0.4770255             -12.9805
         9        1.0000           -0.4348148             -11.8319
        10        0.9985           -0.3372907              -9.1781 (HOMO)
        11        0.0015           -0.3249556              -8.8425 (LUMO)
        12                         -0.1699767              -4.6253
        13                         -0.1445067              -3.9322
        14                          0.1995764               5.4308
        15                          0.8018610              21.8197
        16                          1.1075200              30.1372
      -------------------------------------------------------------
                  HL-Gap            0.0123351 Eh            0.3357 eV
             Fermi-level           -0.3935179 Eh          -10.7082 eV

 transition dipole moment (au) for excitation:           9          10
     X       Y       Z   
  -0.5258   0.0372   0.1231  total (au/Debye):    0.541   1.376
 dE (eV)             :    2.654
 oscillator strength :  0.26940E-01

 SCC (total)                   0 d,  0 h,  0 min,  0.003 sec
 SCC setup                      ...        0 min,  0.000 sec (  1.642%)
 Dispersion                     ...        0 min,  0.000 sec (  0.259%)
 integral evaluation            ...        0 min,  0.001 sec ( 31.305%)
 zeroth order Hamiltonian       ...        0 min,  0.000 sec (  0.384%)
 iterations                     ...        0 min,  0.001 sec ( 15.009%)
 molecular gradient             ...        0 min,  0.001 sec ( 28.363%)
 printout                       ...        0 min,  0.001 sec ( 22.738%)

         :::::::::::::::::::::::::::::::::::::::::::::::::::::
         ::                     SUMMARY                     ::
         :::::::::::::::::::::::::::::::::::::::::::::::::::::
         :: total energy             -10.207883165427 Eh    ::
         :: gradient norm              0.001559031954 Eh/a0 ::
         :: HOMO-LUMO gap              0.335654930062 eV    ::
         ::.................................................::
         :: SCC energy               -10.391618838870 Eh    ::
         :: -> isotropic ES            0.009828727067 Eh    ::
         :: -> anisotropic ES          0.001700352166 Eh    ::
         :: -> anisotropic XC          0.004971118669 Eh    ::
         :: -> dispersion             -0.001630004553 Eh    ::
         :: repulsion energy           0.183735746339 Eh    ::
         :: add. restraining           0.000000000000 Eh    ::
         :::::::::::::::::::::::::::::::::::::::::::::::::::::

           ------------------------------------------------- 
          |                Numerical Hessian                |
           ------------------------------------------------- 
step length          :   0.00500
SCC accuracy         :   0.30000
Hessian scale factor :   1.00000
frozen atoms in %    :   0.00000    0
RMS gradient         :   0.00156
estimated CPU  time      0.00 min
estimated wall time      0.00 min

writing file <hessian>.

 projected vibrational frequencies (cm-1)
eigval :       -0.00    -0.00    -0.00     0.00     0.00     0.00
eigval :      192.33   283.71   365.05   987.79  1836.14  2133.95
           -------------------------------------------------
          |                Property Printout                |
           -------------------------------------------------

    * Orbital Energies and Occupations

         #    Occupation            Energy/Eh            Energy/eV
      -------------------------------------------------------------
         1        2.0000           -0.7700279             -20.9535
         2        2.0000           -0.6810222             -18.5316
         3        2.0000           -0.6412600             -17.4496
         4        2.0000           -0.5995244             -16.3139
         5        2.0000           -0.5945698             -16.1791
         6        2.0000           -0.5729488             -15.5907
         7        2.0000           -0.4809646             -13.0877
         8        2.0000           -0.4770255             -12.9805
         9        1.0000           -0.4348147             -11.8319
        10        0.9985           -0.3372907              -9.1781 (HOMO)
        11        0.0015           -0.3249556              -8.8425 (LUMO)
        12                         -0.1699768              -4.6253
        13                         -0.1445067              -3.9322
        14                          0.1995764               5.4307
        15                          0.8018610              21.8197
        16                          1.1075199              30.1372
      -------------------------------------------------------------
                  HL-Gap            0.0123351 Eh            0.3357 eV
             Fermi-level           -0.3935179 Eh          -10.7082 eV

     #   Z        covCN         q      C6AA      α(0)
     1   6 C      0.985    -0.030    36.844    10.197
     2   6 C      1.962    -0.015    31.481     9.061
     3   6 C      1.840     0.230    25.776     8.202
     4   8 O      0.856    -0.185    17.826     5.661
Molecule has the following symmetry elements: (sigma) 
It seems to be the Cs point group

 Mol. C6AA /au·bohr⁶  :        437.491685
 Mol. C8AA /au·bohr⁸  :      11835.714363
 Mol. α(0) /au        :         33.120395


Wiberg/Mayer (AO) data.
largest (>0.10) Wiberg bond orders for each atom
          total WBO             WBO to atom ...
     1  C   2.492        C    2 2.284    O    4 0.128
     2  C   3.771        C    1 2.284    C    3 1.397
     3  C   3.460        O    4 1.982    C    2 1.397
     4  O   2.200        C    3 1.982    C    1 0.128

MOs/occ written to file <molden.input>


molecular dipole:
                 x           y           z       tot (Debye)
 q only:        0.223       0.015       0.094
   full:        0.326       0.000       0.023       0.830
molecular quadrupole (traceless):
                xx          xy          yy          xz          yz          zz
 q only:       -2.192       0.015       1.089      -0.297       0.011       1.103
  q+dip:       -0.222      -0.111       0.092      -0.473       0.018       0.131
   full:       -2.694      -0.068       1.877      -0.845      -0.189       0.817

           -------------------------------------------------
          |                Geometry Summary                 |
           -------------------------------------------------

      molecular mass/u    :       52.0316126
   center of mass at/Å    :       -0.1386315       0.0018172      -0.0066007
  moments of inertia/u·Å² :        0.8099820E+00   0.1021315E+03   0.1029395E+03
rotational constants/cm⁻¹ :        0.2081236E+02   0.1650581E+00   0.1637625E+00

 * 2 selected distances

     #   Z        #   Z                                     value/Å
     1   6 C      2   6 C                                 1.2442968 (max)
     3   6 C      4   8 O                                 1.1722050 (min)

 * 2 distinct bonds (by element types)

   Z      Z             #   av. dist./Å        max./Å        min./Å
   6 C    6 C           1     1.2442968     1.2442968     1.2442968
   6 C    8 O           1     1.1722050     1.1722050     1.1722050

           -------------------------------------------------
          |               Frequency Printout                |
           -------------------------------------------------
 projected vibrational frequencies (cm-1)
eigval :       -0.00    -0.00    -0.00     0.00     0.00     0.00
eigval :      192.33   283.71   365.05   987.79  1836.14  2133.95
 reduced masses (amu)
   1: 15.05   2: 12.28   3: 12.03   4: 12.38   5: 14.44   6: 13.19   7: 12.88   8: 12.91
   9: 12.37  10: 13.29  11: 12.35  12: 12.91
 IR intensities (amu)
   1:  0.08   2:  0.05   3:  0.03   4:  0.02   5:  0.07   6:  0.11   7:  0.24   8:  0.24
   9:  0.48  10:  0.14  11:  1.49  12:  2.15
 Raman intensities (amu)
   1:  0.00   2:  0.00   3:  0.00   4:  0.00   5:  0.00   6:  0.00   7:  0.00   8:  0.00
   9:  0.00  10:  0.00  11:  0.00  12:  0.00
 output can be read by thermo (or use thermo option).
 writing <g98.out> molden fake output.
 recommended (thermochemical) frequency scaling factor: 1.0
           -------------------------------------------------
          |             Thermodynamic Functions             |
           -------------------------------------------------

cs  symmetry found (for desy threshold:  0.10E+00) used in thermo

          ...................................................
          :                      SETUP                      :
          :.................................................:
          :  # frequencies                           6      :
          :  # imaginary freq.                       0      :
          :  linear?                             false      :
          :  only rotor calc.                    false      :
          :  symmetry                               cs      :
          :  rotational number                       1      :
          :  scaling factor                  1.0000000      :
          :  rotor cutoff                   50.0000000 cm⁻¹ :
          :  imag. cutoff                  -20.0000000 cm⁻¹ :
          :.................................................:

    mode    ω/cm⁻¹     T·S(HO)/kcal·mol⁻¹    T·S(FR)/kcal·mol⁻¹   T·S(vib)
   ------------------------------------------------------------------------
       1    192.33    -0.00000 ( 99.55%)     0.01169 (  0.45%)     0.00005
       2    283.71    -0.00000 ( 99.90%)     0.01555 (  0.10%)     0.00001
   ------------------------------------------------------------------------

   temp. (K)  partition function   enthalpy   heat capacity  entropy
                                   cal/mol     cal/K/mol   cal/K/mol   J/K/mol
 298.15  VIB   2.70                  877.815      5.519      4.919
         ROT  0.705E+04              888.752      2.981     20.589
         INT  0.190E+05             1766.567      8.500     25.509
         TR   0.363E+27             1481.254      4.968     37.753
         TOT                        3247.8213    13.4678    63.2622   264.6891

   temp. (K)  partition function   enthalpy   heat capacity  entropy
                                   cal/mol     cal/K/mol   cal/K/mol   J/K/mol
 120.00  VIB   1.16                  102.131      2.612      1.156
         ROT  0.180E+04              357.707      2.981     17.876
         INT  0.209E+04              459.838      5.593     19.032
         TR   0.927E+26              596.178      4.968     33.234
         TOT                        1056.0158    10.5607    52.2662   218.6819

   temp. (K)  partition function   enthalpy   heat capacity  entropy
                                   cal/mol     cal/K/mol   cal/K/mol   J/K/mol
 100.00  VIB   1.09                   56.291      1.957      0.740
         ROT  0.137E+04              298.089      2.981     17.333
         INT  0.149E+04              354.380      4.938     18.073
         TR   0.705E+26              496.815      4.968     32.329
         TOT                         851.1950     9.9062    50.4014   210.8795

   temp. (K)  partition function   enthalpy   heat capacity  entropy
                                   cal/mol     cal/K/mol   cal/K/mol   J/K/mol
  80.00  VIB   1.04                   24.299      1.237      0.385
         ROT   980.                  238.471      2.981     16.668
         INT  0.102E+04              262.770      4.218     17.053
         TR   0.505E+26              397.452      4.968     31.221
         TOT                         660.2220     9.1860    48.2740   201.9784

   temp. (K)  partition function   enthalpy   heat capacity  entropy
                                   cal/mol     cal/K/mol   cal/K/mol   J/K/mol
  60.00  VIB   1.01                    6.583      0.555      0.135
         ROT   636.                  178.853      2.981     15.810
         INT   644.                  185.436      3.536     15.945
         TR   0.328E+26              298.089      4.968     29.792
         TOT                         483.5253     8.5037    45.7370   191.3634

   temp. (K)  partition function   enthalpy   heat capacity  entropy
                                   cal/mol     cal/K/mol   cal/K/mol   J/K/mol
  40.00  VIB   1.00                    0.577      0.103      0.017
         ROT   346.                  119.236      2.981     14.602
         INT   347.                  119.813      3.084     14.619
         TR   0.178E+26              198.726      4.968     27.779
         TOT                         318.5385     8.0517    42.3974   177.3906

   temp. (K)  partition function   enthalpy   heat capacity  entropy
                                   cal/mol     cal/K/mol   cal/K/mol   J/K/mol
  20.00  VIB   1.00                    0.001      0.000     -0.003
         ROT   122.                   59.618      2.981     12.535
         INT   122.                   59.618      2.981     12.532
         TR   0.631E+25               99.363      4.968     24.337
         TOT                         158.9813     7.9494    36.8688   154.2590

   temp. (K)  partition function   enthalpy   heat capacity  entropy
                                   cal/mol     cal/K/mol   cal/K/mol   J/K/mol
  10.00  VIB   1.00                    0.000      0.000     -0.007
         ROT   43.3                   29.809      2.981     10.469
         INT   43.3                   29.809      2.981     10.462
         TR   0.223E+25               49.681      4.968     20.895
         TOT                          79.4904     7.9490    31.3565   131.1958

       T/K    H(0)-H(T)+PV         H(T)/Eh          T*S/Eh         G(T)/Eh
   ------------------------------------------------------------------------
    298.15    0.517573E-02    0.183868E-01    0.300579E-01   -0.116711E-01
    120.00    0.168287E-02    0.148939E-01    0.999498E-02    0.489892E-02
    100.00    0.135647E-02    0.145675E-01    0.803197E-02    0.653553E-02
     80.00    0.105213E-02    0.142632E-01    0.615436E-02    0.810881E-02
     60.00    0.770547E-03    0.139816E-01    0.437319E-02    0.960840E-02
     40.00    0.507623E-03    0.137187E-01    0.270258E-02    0.110161E-01
     20.00    0.253353E-03    0.134644E-01    0.117508E-02    0.122893E-01
     10.00    0.126676E-03    0.133377E-01    0.499698E-03    0.128380E-01 (used)
   ------------------------------------------------------------------------

         :::::::::::::::::::::::::::::::::::::::::::::::::::::
         ::                  THERMODYNAMIC                  ::
         :::::::::::::::::::::::::::::::::::::::::::::::::::::
         :: total free energy         -10.195045149084 Eh   ::
         ::.................................................::
         :: total energy              -10.207883165406 Eh   ::
         :: zero point energy           0.013211038550 Eh   ::
         :: G(RRHO) w/o ZPVE           -0.000373022228 Eh   ::
         :: G(RRHO) contrib.            0.012838016322 Eh   ::
         :::::::::::::::::::::::::::::::::::::::::::::::::::::

optimized geometry written to: xtbopt.xyz


           -------------------------------------------------
          | TOTAL ENERGY              -10.207883165406 Eh   |
          | TOTAL ENTHALPY            -10.194545450840 Eh   |
          | TOTAL FREE ENERGY         -10.195045149084 Eh   |
          | GRADIENT NORM               0.001559045088 Eh/α |
          | HOMO-LUMO GAP               0.335655042503 eV   |
           -------------------------------------------------

------------------------------------------------------------------------
 * finished run on 2020/05/12 at 11:45:17.875     
------------------------------------------------------------------------
 total:
 * wall-time:     0 d,  0 h,  0 min,  0.157 sec
 *  cpu-time:     0 d,  0 h,  0 min,  0.157 sec
 * ratio c/w:     0.998 speedup
 SCF:
 * wall-time:     0 d,  0 h,  0 min,  0.005 sec
 *  cpu-time:     0 d,  0 h,  0 min,  0.005 sec
 * ratio c/w:     0.999 speedup
 ANC optimizer:
 * wall-time:     0 d,  0 h,  0 min,  0.066 sec
 *  cpu-time:     0 d,  0 h,  0 min,  0.066 sec
 * ratio c/w:     0.998 speedup
 numerical hessian:
 * wall-time:     0 d,  0 h,  0 min,  0.065 sec
 *  cpu-time:     0 d,  0 h,  0 min,  0.065 sec
 * ratio c/w:     0.999 speedup

