4
 energy: -6.530916584868 gnorm: 0.000285416911 xtb: 6.2.2 (9d81278992624c895f80dd42a50cac0aa55982e2)
C         0.41624845115138   -0.03314267020276    0.32992194246709
C        -0.90401085533694   -0.61551671918332   -0.10230022273297
C        -0.86220899472842    0.68010151938282   -0.02488719564138
H         1.34997139891397   -0.03144212999673   -0.20273452409274
