[Molden Format]
[Title]
[Atoms] AU
C      1     6  0.78659549949554E+00 -0.62630563911151E-01  0.62346205592260E+00
C      2     6 -0.17083327717766E+01 -0.11631579164670E+01 -0.19331938551737E+00
C      3     6 -0.16293387110558E+01  0.12852054893342E+01 -0.47029979408757E-01
H      4     1  0.25510759833368E+01 -0.59417008956005E-01 -0.38311269099648E+00
[GTO]
           1 0
 s           4   1.0000000000000000     
   51.049363095579913      -0.16312063210127389     
   8.7911227406887544      -0.19911024581000730     
  0.70640422258929825       0.31882047753655751     
  0.26922813413411617       0.12706504184240380     
 p           4   1.0000000000000000     
   5.8263656140800002       0.73716451545209605     
   1.5106896018720002       0.68216371614850257     
  0.53256483288000001       0.35783053929253711     
  0.21202323690600003        5.3983030275847881E-002

           2 0
 s           4   1.0000000000000000     
   51.049363095579913      -0.16312063210127389     
   8.7911227406887544      -0.19911024581000730     
  0.70640422258929825       0.31882047753655751     
  0.26922813413411617       0.12706504184240380     
 p           4   1.0000000000000000     
   5.8263656140800002       0.73716451545209605     
   1.5106896018720002       0.68216371614850257     
  0.53256483288000001       0.35783053929253711     
  0.21202323690600003        5.3983030275847881E-002

           3 0
 s           4   1.0000000000000000     
   51.049363095579913      -0.16312063210127389     
   8.7911227406887544      -0.19911024581000730     
  0.70640422258929825       0.31882047753655751     
  0.26922813413411617       0.12706504184240380     
 p           4   1.0000000000000000     
   5.8263656140800002       0.73716451545209605     
   1.5106896018720002       0.68216371614850257     
  0.53256483288000001       0.35783053929253711     
  0.21202323690600003        5.3983030275847881E-002

           4 0
 s           3   1.0000000000000000     
   3.3702276975336001       0.27359110588908298     
  0.61389118221497996       0.26460540653860526     
  0.16614291148415999        8.2465947534082318E-002

[MO]
Sym=     1a
Ene=  -0.68441498651219290     
Spin= Alpha
Occup=     2.00000000
           1  0.31516756589134032     
           2 -0.16083211033102973     
           3   8.3412613905686356E-003
           4  -5.2755206447676839E-002
           5  0.40106312126865296     
           6   8.2952685189788558E-002
           7  0.15827979394865588     
           8   3.0286933954813407E-002
           9  0.40106334640876984     
          10   7.2498005884469946E-002
          11 -0.16575773170861491     
          12   1.0925750021114195E-002
          13   5.1066101095548266E-002
Sym=     2a
Ene=  -0.58079210300929651     
Spin= Alpha
Occup=     2.00000000
           1 -0.50708369464771885     
           2 -0.20025232184563990     
           3   3.3629970315052966E-003
           4   5.1847761146544498E-002
           5  0.21765676895426775     
           6 -0.23096188173879365     
           7  0.10681606060284336     
           8  -2.5349416373798256E-002
           9  0.21765684148256442     
          10 -0.23724713918661164     
          11  -8.7985075845403035E-002
          12  -3.6988785683407521E-002
          13 -0.34956965131166734     
Sym=     3a
Ene=  -0.53472490536412953     
Spin= Alpha
Occup=     2.00000000
           1   1.0128737185740591E-007
           2  -1.2553348578412758E-002
           3 -0.38908347494103773     
           4  -2.3247703763943781E-002
           5  0.49449221306236690     
           6   7.6328313695885025E-002
           7 -0.29139891526454509     
           8   7.4710620416226529E-003
           9 -0.49449234156865951     
          10  -9.4858702119935523E-002
          11 -0.28293303247446749     
          12  -4.1787342010397001E-002
          13   6.5692488612231907E-008
Sym=     4a
Ene=  -0.51305063303946263     
Spin= Alpha
Occup=     2.00000000
           1 -0.10120904439122769     
           2  0.32356465392912509     
           3   6.8166689072036400E-003
           4 -0.28880733295564442     
           5  0.12656848059217216     
           6 -0.19897325666538562     
           7   9.4149847021651134E-002
           8 -0.37887906862873350     
           9  0.12656872577030862     
          10 -0.20315441175769561     
          11  -3.5436866654694948E-002
          12 -0.38662216897906843     
          13  0.29275552844687996     
Sym=     5a
Ene=  -0.47806134283697105     
Spin= Alpha
Occup=     2.00000000
           1 -0.15778386112109088     
           2 -0.28766185311972603     
           3   2.7177996095980109E-002
           4 -0.29952916316494799     
           5  -8.2511409420960982E-002
           6  0.38045117109182586     
           7  -4.6595631943381496E-002
           8 -0.32708358746059879     
           9  -8.2511664447075861E-002
          10  0.38391129943793550     
          11   6.0637692618938449E-002
          12 -0.32067667834933788     
          13 -0.24467154395805008     
Sym=     6a
Ene=  -0.39564145322333660     
Spin= Alpha
Occup=     1.00000000
           1  -1.2418992586952903E-007
           2   2.0093472331548349E-002
           3  0.62277432488329965     
           4   3.7210777951724831E-002
           5  0.28760064020802634     
           6 -0.40331240231151338     
           7 -0.20434173913419565     
           8 -0.13398843933676652     
           9 -0.28760505776155015     
          10  0.38883692684606552     
          11 -0.24431672375081454     
          12  0.10718111018250320     
          13  -2.0130654299543609E-008
Sym=     7a
Ene=  -0.39074028579738374     
Spin= Alpha
Occup=     1.00000000
           1   9.6166662722581529E-003
           2   2.4871348570312871E-002
           3  -2.6446546875660290E-003
           4   3.0773160173635072E-002
           5 -0.38844971620369623     
           6   4.6025545056497336E-002
           7  0.60353651310005785     
           8   2.2896960741071438E-002
           9 -0.38844593112515824     
          10   7.0714249109176943E-003
          11 -0.60367319491754046     
          12  -4.9235089737244331E-002
          13  -2.5766746033534932E-002
Sym=     8a
Ene=  -0.33621328631618341     
Spin= Alpha
Occup=     1.00000000
           1 -0.38080745704884106     
           2  -6.9931388719929627E-002
           3   4.9314292182773306E-002
           4 -0.78758572891365020     
           5  -2.7543310976176821E-002
           6  -8.4642761062701799E-003
           7  -2.4117306118354802E-003
           8  0.38815219322489708     
           9  -2.7543199617600125E-002
          10  -9.7817936082491650E-003
          11  -4.3237871645477426E-002
          12  0.38571345505303756     
          13  0.21718908943527329     
Sym=     9a
Ene=  -0.24506053918205892     
Spin= Alpha
Occup=     0.00000000
           1  -1.4894844151437058E-007
           2  -2.4469731120342306E-005
           3  -7.5769159557449359E-004
           4  -4.5480547037355706E-005
           5   7.2542920279169423E-004
           6 -0.23564510513295525     
           7  -3.9021937519536129E-002
           8  0.76898733784593098     
           9  -7.2544751721210728E-004
          10  0.23560145332612237     
          11   3.7672290495410855E-002
          12 -0.76906738925543705     
          13   1.2173176671504602E-007
Sym=    10a
Ene=   -5.4113055824283739E-002
Spin= Alpha
Occup=     0.00000000
           1   2.1178083333709795E-007
           2   2.4362279030632046E-002
           3  0.75509743736072055     
           4   4.5116863573662694E-002
           5   8.2725455657279512E-002
           6  0.68713091710354557     
           7 -0.22487024167889919     
           8  0.19926092066301160     
           9  -8.2725616097395607E-002
          10 -0.69938616773432472     
          11 -0.15496779083636725     
          12 -0.22195622795746964     
          13  -5.2422190044955339E-008
Sym=    11a
Ene=    7.9709270054261108E-002
Spin= Alpha
Occup=     0.00000000
           1  0.99317692674159164     
           2 -0.24653868907030052     
           3   4.0011830389949571E-002
           4 -0.53652989552977515     
           5 -0.25106917829337655     
           6 -0.44801404935616079     
           7  -8.4850841507483774E-002
           8  -6.9431963641162317E-002
           9 -0.25106919112802084     
          10 -0.44136862067454774     
          11  0.12110786695599479     
          12  -5.7125891228998193E-002
          13 -0.64465056479915894     
Sym=    12a
Ene=   0.28184881686585572     
Spin= Alpha
Occup=     0.00000000
           1  0.12644149382476716     
           2   1.1511352611642742     
           3  -2.3808783538672790E-002
           4 -0.22312013886504098     
           5  0.26064477049587270     
           6  0.29268614639601076     
           7   7.1108463267794630E-002
           8  0.16621440292498951     
           9  0.26064486162013195     
          10  0.28687409482133547     
          11 -0.10902708290884726     
          12  0.15545125682329897     
          13 -0.96737603361636515     
Sym=    13a
Ene=   0.58434222668942049     
Spin= Alpha
Occup=     0.00000000
           1  -2.3537030639733076E-008
           2   6.0301715921197924E-003
           3  0.18689774473491411     
           4   1.1167117994963095E-002
           5  0.85141227444084810     
           6  0.10288976533387882     
           7  0.95702043800596837     
           8   7.9357754621348600E-002
           9 -0.85141219298354154     
          10  -4.0900693144766347E-002
          11  0.96428368211194682     
          12   3.5439956872411187E-002
          13  -5.4481262078493604E-008
