4
 energy: -6.485718998873 gnorm: 0.203085241429 xtb: 6.2.2 (9d81278992624c895f80dd42a50cac0aa55982e2)
C         0.38688400000000   -0.04062300000000    0.47099500000000
C        -0.81903600000000   -0.72337000000000   -0.14019100000000
C        -0.77034700000000    0.78600600000000   -0.05000300000000
H         1.20249900000000   -0.02201300000000   -0.28080100000000
4
 energy: -6.524741778745 gnorm: 0.091338445997 xtb: 6.2.2 (9d81278992624c895f80dd42a50cac0aa55982e2)
C         0.40962868818820   -0.03803675597288    0.41543123471945
C        -0.86781472789260   -0.64395816326785   -0.12366695941255
C        -0.82418764798292    0.70849009462301   -0.04285574206332
H         1.28237368768732   -0.02649517538228   -0.24890853324358
4
 energy: -6.525652553341 gnorm: 0.128092734551 xtb: 6.2.2 (9d81278992624c895f80dd42a50cac0aa55982e2)
C         0.42557264971293   -0.03584865313420    0.37020088555341
C        -0.89809068118649   -0.58464449961142   -0.11092554723377
C        -0.85825819771635    0.65014941335250   -0.03714457626639
H         1.33077622918991   -0.02965626060688   -0.22213076205325
4
 energy: -6.530517174955 gnorm: 0.019017857589 xtb: 6.2.2 (9d81278992624c895f80dd42a50cac0aa55982e2)
C         0.41761918684026   -0.03504926340490    0.36111526673252
C        -0.89824722149514   -0.61836641117550   -0.10966079602860
C        -0.85625351730085    0.68342134932200   -0.03187688449362
H         1.33688155195573   -0.03000567474160   -0.21957758621030
4
 energy: -6.530796761345 gnorm: 0.008111757341 xtb: 6.2.2 (9d81278992624c895f80dd42a50cac0aa55982e2)
C         0.41783543372894   -0.03431932834708    0.34878473812975
C        -0.90073494971708   -0.61575578127381   -0.10678367169429
C        -0.85891487987289    0.68065217452358   -0.02932107444892
H         1.34181439586103   -0.03057706490269   -0.21267999198655
4
 energy: -6.530911098177 gnorm: 0.002308595340 xtb: 6.2.2 (9d81278992624c895f80dd42a50cac0aa55982e2)
C         0.41694396580547   -0.03338388342134    0.33361071659893
C        -0.90346466907896   -0.61473822953380   -0.10319222157652
C        -0.86171791786469    0.67939198015701   -0.02586572067171
H         1.34823862113819   -0.03126986720188   -0.20455277435070
4
 energy: -6.530916360719 gnorm: 0.000732682128 xtb: 6.2.2 (9d81278992624c895f80dd42a50cac0aa55982e2)
C         0.41645057666952   -0.03318827730675    0.33060385406597
C        -0.90398760727625   -0.61520792166278   -0.10246444902301
C        -0.86221239054110    0.67980435637759   -0.02508522076477
H         1.34974942114784   -0.03140815740807   -0.20305418427818
4
 energy: -6.530916585077 gnorm: 0.000285491652 xtb: 6.2.2 (9d81278992624c895f80dd42a50cac0aa55982e2)
C         0.41624747303292   -0.03314106655541    0.32992333760531
C        -0.90400727538589   -0.61552127401064   -0.10230445260171
C        -0.86221246884187    0.68009704829832   -0.02488901833759
H         1.34997227119484   -0.03143470773227   -0.20272986666601
