 Entering Gaussian System
 *********************************************
 Gaussian 98:
 frequency output generated by the xtb code
 *********************************************
                         Standard orientation:
 --------------------------------------------------------------------
  Center     Atomic     Atomic              Coordinates (Angstroms)
  Number     Number      Type              X           Y           Z
 --------------------------------------------------------------------
    1          6             0        0.416248   -0.033143    0.329922
    2          6             0       -0.904011   -0.615517   -0.102300
    3          6             0       -0.862209    0.680102   -0.024887
    4          1             0        1.349971   -0.031442   -0.202735
 --------------------------------------------------------------------
     1 basis functions        1 primitive gaussians
     1 alpha electrons        1 beta electrons

 Harmonic frequencies (cm**-1), IR intensities (KM/Mole),
 Raman scattering activities (A**4/amu), Raman depolarization ratios,
 reduced masses (AMU), force constants (mDyne/A) and normal coordinates:
                      1                      2                      3
                        a                      a                      a 
 Frequencies --   590.8746               831.2308               850.5244
 Red. masses --    11.6643                 3.1736                 2.9849
 Frc consts  --     0.0000                 0.0000                 0.0000
 IR Inten    --     0.3654                 0.1742                 0.2439
 Raman Activ --     0.0000                 0.0000                 0.0000
 Depolar     --     0.0000                 0.0000                 0.0000
 Atom AN      X      Y      Z        X      Y      Z        X      Y      Z
   1   6     0.01   0.46   0.03     0.01   0.37   0.03     0.04   0.03  -0.38
   2   6    -0.55  -0.23  -0.15     0.07  -0.05  -0.15    -0.09  -0.01   0.08
   3   6     0.54  -0.28   0.12    -0.07  -0.06   0.14    -0.09   0.00   0.08
   4   1     0.01   0.18   0.01    -0.04  -0.89  -0.07     0.47  -0.08   0.77
                      4                      5                      6
                        a                      a                      a 
 Frequencies --  1125.6350              1774.0613              3051.8058
 Red. masses --    11.7518                11.9762                 1.8514
 Frc consts  --     0.0000                 0.0000                 0.0000
 IR Inten    --     0.3905                 0.2721                 0.2379
 Raman Activ --     0.0000                 0.0000                 0.0000
 Depolar     --     0.0000                 0.0000                 0.0000
 Atom AN      X      Y      Z        X      Y      Z        X      Y      Z
   1   6    -0.73   0.04  -0.25    -0.18   0.01  -0.07     0.25  -0.00  -0.12
   2   6     0.38  -0.20   0.10     0.12   0.68   0.07    -0.00  -0.01  -0.00
   3   6     0.39   0.16   0.13     0.08  -0.69  -0.01    -0.00   0.01  -0.00
   4   1    -0.14   0.00   0.06    -0.05  -0.00   0.03    -0.85   0.00   0.45
