[Molden Format]
[Title]
[Atoms] AU
O      1     8  0.11428533557693E+01 -0.59839661777467E-05 -0.39893107851989E-05
O      2     8 -0.11428533557693E+01  0.59839661777467E-05  0.39893107851989E-05
[GTO]
           1 0
 s           4   1.0000000000000000     
   69.137961906196551      -0.20478756370077797     
   11.906129132707308      -0.24997023136827334     
  0.95670827744340703       0.40025880240639616     
  0.36462520496073686       0.15952206667693555     
 p           4   1.0000000000000000     
   8.2124193257781641        1.1321556799186829     
   2.1293576997098116        1.0476840782254817     
  0.75066448202360914       0.54956508217158984     
  0.29885246543283073        8.2908486592766617E-002

           2 0
 s           4   1.0000000000000000     
   69.137961906196551      -0.20478756370077797     
   11.906129132707308      -0.24997023136827334     
  0.95670827744340703       0.40025880240639616     
  0.36462520496073686       0.15952206667693555     
 p           4   1.0000000000000000     
   8.2124193257781641        1.1321556799186829     
   2.1293576997098116        1.0476840782254817     
  0.75066448202360914       0.54956508217158984     
  0.29885246543283073        8.2908486592766617E-002

[MO]
Sym=     1a
Ene=  -0.82717504437291856     
Spin= Alpha
Occup=     2.00000000
           1  0.49830960923342832     
           2 -0.27846291360305259     
           3   1.4642559045418847E-006
           4   9.7617060326356113E-007
           5  0.49830960923347867     
           6  0.27846291360304443     
           7  -1.4642559054017064E-006
           8  -9.7617060324675685E-007
Sym=     2a
Ene=  -0.73688372066260888     
Spin= Alpha
Occup=     2.00000000
           1 -0.65927168019660831     
           2 -0.26896671295486296     
           3   1.3824460831206305E-006
           4   9.2163072307161701E-007
           5  0.65927168019663906     
           6 -0.26896671295496777     
           7   1.3824460818583013E-006
           8   9.2163072308740210E-007
Sym=     3a
Ene=  -0.66150238663821070     
Spin= Alpha
Occup=     2.00000000
           1   5.4492653658785242E-009
           2  -8.0729269574188943E-007
           3 -0.46188181952984481     
           4  0.46050109837662745     
           5  -5.4492675795486225E-009
           6  -8.0729269351535226E-007
           7 -0.46188181952988411     
           8  0.46050109837666725     
Sym=     4a
Ene=  -0.66150238659954674     
Spin= Alpha
Occup=     2.00000000
           1   2.7035818214451384E-008
           2  -4.0052774017452375E-006
           3 -0.46050109836119946     
           4 -0.46188181952141294     
           5  -2.7035820498545395E-008
           6  -4.0052773994331204E-006
           7 -0.46050109836123887     
           8 -0.46188181952145330     
Sym=     5a
Ene=  -0.63814591534175213     
Spin= Alpha
Occup=     2.00000000
           1 -0.43220058954927748     
           2 -0.57194490005808063     
           3   2.9859834320418632E-006
           4   1.9906556191770671E-006
           5 -0.43220058954917123     
           6  0.57194490005805243     
           7  -2.9859834281193964E-006
           8  -1.9906556190798353E-006
Sym=     6a
Ene=  -0.44279193731462657     
Spin= Alpha
Occup=     1.00000001
           1  -2.0883324086686956E-009
           2   9.6421277132036954E-007
           3  0.55108935665353487     
           4 -0.55012442553313834     
           5  -2.0883329675481119E-009
           6  -9.6421277108283143E-007
           7 -0.55108935665350212     
           8  0.55012442553310481     
Sym=     7a
Ene=  -0.44279193725819521     
Spin= Alpha
Occup=     0.99999999
           1   1.0394295408711509E-008
           2  -4.7991926684102687E-006
           3 -0.55012442552500496     
           4 -0.55108935665377867     
           5   1.0394296002680583E-008
           6   4.7991926681631892E-006
           7  0.55012442552497220     
           8  0.55108935665374481     
Sym=     8a
Ene=   0.12472454216639300     
Spin= Alpha
Occup=     0.00000000
           1 -0.62313803464507611     
           2  0.92918646003201899     
           3  -4.8618677040047372E-006
           4  -3.2412451359539564E-006
           5  0.62313803464507622     
           6  0.92918646003200889     
           7  -4.8618677039989765E-006
           8  -3.2412451359561764E-006
