 Entering Gaussian System, Link 0=g16
 Initial command:
 /applis/site/cecic/gaussian16/B.01/nehalem/g16/l1.exe "/bettik/tinaccil/g16/12754374_Cl/Gau-211810.inp" -scrdir="/bettik/tinaccil/g16/12754374_Cl/"
 Entering Link 1 = /applis/site/cecic/gaussian16/B.01/nehalem/g16/l1.exe PID=    211816.
  
 Copyright (c) 1988-2017, Gaussian, Inc.  All Rights Reserved.
  
 This is part of the Gaussian(R) 16 program.  It is based on
 the Gaussian(R) 09 system (copyright 2009, Gaussian, Inc.),
 the Gaussian(R) 03 system (copyright 2003, Gaussian, Inc.),
 the Gaussian(R) 98 system (copyright 1998, Gaussian, Inc.),
 the Gaussian(R) 94 system (copyright 1995, Gaussian, Inc.),
 the Gaussian 92(TM) system (copyright 1992, Gaussian, Inc.),
 the Gaussian 90(TM) system (copyright 1990, Gaussian, Inc.),
 the Gaussian 88(TM) system (copyright 1988, Gaussian, Inc.),
 the Gaussian 86(TM) system (copyright 1986, Carnegie Mellon
 University), and the Gaussian 82(TM) system (copyright 1983,
 Carnegie Mellon University). Gaussian is a federally registered
 trademark of Gaussian, Inc.
  
 This software contains proprietary and confidential information,
 including trade secrets, belonging to Gaussian, Inc.
  
 This software is provided under written license and may be
 used, copied, transmitted, or stored only in accord with that
 written license.
  
 The following legend is applicable only to US Government
 contracts under FAR:
  
                    RESTRICTED RIGHTS LEGEND
  
 Use, reproduction and disclosure by the US Government is
 subject to restrictions as set forth in subparagraphs (a)
 and (c) of the Commercial Computer Software - Restricted
 Rights clause in FAR 52.227-19.
  
 Gaussian, Inc.
 340 Quinnipiac St., Bldg. 40, Wallingford CT 06492
  
  
 ---------------------------------------------------------------
 Warning -- This program may not be used in any manner that
 competes with the business of Gaussian, Inc. or will provide
 assistance to any competitor of Gaussian, Inc.  The licensee
 of this program is prohibited from giving any competitor of
 Gaussian, Inc. access to this program.  By using this program,
 the user acknowledges that Gaussian, Inc. is engaged in the
 business of creating and licensing software in the field of
 computational chemistry and represents and warrants to the
 licensee that it is not a competitor of Gaussian, Inc. and that
 it will not use this program in any manner prohibited above.
 ---------------------------------------------------------------
  

 Cite this work as:
 Gaussian 16, Revision B.01,
 M. J. Frisch, G. W. Trucks, H. B. Schlegel, G. E. Scuseria, 
 M. A. Robb, J. R. Cheeseman, G. Scalmani, V. Barone, 
 G. A. Petersson, H. Nakatsuji, X. Li, M. Caricato, A. V. Marenich, 
 J. Bloino, B. G. Janesko, R. Gomperts, B. Mennucci, H. P. Hratchian, 
 J. V. Ortiz, A. F. Izmaylov, J. L. Sonnenberg, D. Williams-Young, 
 F. Ding, F. Lipparini, F. Egidi, J. Goings, B. Peng, A. Petrone, 
 T. Henderson, D. Ranasinghe, V. G. Zakrzewski, J. Gao, N. Rega, 
 G. Zheng, W. Liang, M. Hada, M. Ehara, K. Toyota, R. Fukuda, 
 J. Hasegawa, M. Ishida, T. Nakajima, Y. Honda, O. Kitao, H. Nakai, 
 T. Vreven, K. Throssell, J. A. Montgomery, Jr., J. E. Peralta, 
 F. Ogliaro, M. J. Bearpark, J. J. Heyd, E. N. Brothers, K. N. Kudin, 
 V. N. Staroverov, T. A. Keith, R. Kobayashi, J. Normand, 
 K. Raghavachari, A. P. Rendell, J. C. Burant, S. S. Iyengar, 
 J. Tomasi, M. Cossi, J. M. Millam, M. Klene, C. Adamo, R. Cammi, 
 J. W. Ochterski, R. L. Martin, K. Morokuma, O. Farkas, 
 J. B. Foresman, and D. J. Fox, Gaussian, Inc., Wallingford CT, 2016.
 
 ******************************************
 Gaussian 16:  ES64L-G16RevB.01 20-Dec-2017
                 5-Oct-2020 
 ******************************************
 %nosave
 %nproc=8
 Will use up to    8 processors via shared memory.
 %mem=2gb
 %chk=input
 ------------------------
 #P ROCCSD(T)/aug-cc-pvtz
 ------------------------
 1/38=1,172=1/1;
 2/12=2,17=6,18=5,40=1/2;
 3/5=16,6=1,7=10,11=2,25=1,30=1,116=101/1,2,3;
 4//1;
 5/5=2,38=5/2;
 8/5=-1,6=4,9=120000,10=1/1,4;
 9/5=7,14=2/13;
 6/7=2,8=2,9=2,10=2/1;
 99/5=1,9=1/99;
 Leave Link    1 at Mon Oct  5 21:35:31 2020, MaxMem=   268435456 cpu:               0.8 elap:               0.2
 (Enter /applis/site/cecic/gaussian16/B.01/nehalem/g16/l101.exe)
 -----
 Title
 -----
 Symbolic Z-matrix:
 Charge =  1 Multiplicity = 3
 Cl
 
 ITRead=  0
 MicOpt= -1
 NAtoms=      1 NQM=        1 NQMF=       0 NMMI=      0 NMMIF=      0
                NMic=       0 NMicF=      0.
                    Isotopes and Nuclear Properties:
 (Nuclear quadrupole moments (NQMom) in fm**2, nuclear magnetic moments (NMagM)
  in nuclear magnetons)

  Atom         1
 IAtWgt=          35
 AtmWgt=  34.9688527
 NucSpn=           3
 AtZEff=  -0.0000000
 NQMom=   -8.1650000
 NMagM=    0.8218740
 AtZNuc=  17.0000000
 Leave Link  101 at Mon Oct  5 21:35:31 2020, MaxMem=   268435456 cpu:               1.7 elap:               0.3
 (Enter /applis/site/cecic/gaussian16/B.01/nehalem/g16/l202.exe)
                          Input orientation:                          
 ---------------------------------------------------------------------
 Center     Atomic      Atomic             Coordinates (Angstroms)
 Number     Number       Type             X           Y           Z
 ---------------------------------------------------------------------
      1         17           0        0.000000    0.000000    0.000000
 ---------------------------------------------------------------------
 Stoichiometry    Cl(1+,3)
 Framework group  OH[O(Cl)]
 Deg. of freedom     0
 Full point group                 OH      NOp  48
 Largest Abelian subgroup         D2H     NOp   8
 Largest concise Abelian subgroup C1      NOp   1
                         Standard orientation:                         
 ---------------------------------------------------------------------
 Center     Atomic      Atomic             Coordinates (Angstroms)
 Number     Number       Type             X           Y           Z
 ---------------------------------------------------------------------
      1         17           0        0.000000    0.000000    0.000000
 ---------------------------------------------------------------------
 Leave Link  202 at Mon Oct  5 21:35:31 2020, MaxMem=   268435456 cpu:               0.1 elap:               0.0
 (Enter /applis/site/cecic/gaussian16/B.01/nehalem/g16/l301.exe)
 Standard basis: Aug-CC-pVTZ (5D, 7F)
 Ernie: Thresh=  0.10000D-02 Tol=  0.10000D-05 Strict=F.
 Ernie:  13 primitive shells out of 64 were deleted.
 There are    15 symmetry adapted cartesian basis functions of AG  symmetry.
 There are     3 symmetry adapted cartesian basis functions of B1G symmetry.
 There are     3 symmetry adapted cartesian basis functions of B2G symmetry.
 There are     3 symmetry adapted cartesian basis functions of B3G symmetry.
 There are     2 symmetry adapted cartesian basis functions of AU  symmetry.
 There are    11 symmetry adapted cartesian basis functions of B1U symmetry.
 There are    11 symmetry adapted cartesian basis functions of B2U symmetry.
 There are    11 symmetry adapted cartesian basis functions of B3U symmetry.
 There are    12 symmetry adapted basis functions of AG  symmetry.
 There are     3 symmetry adapted basis functions of B1G symmetry.
 There are     3 symmetry adapted basis functions of B2G symmetry.
 There are     3 symmetry adapted basis functions of B3G symmetry.
 There are     2 symmetry adapted basis functions of AU  symmetry.
 There are     9 symmetry adapted basis functions of B1U symmetry.
 There are     9 symmetry adapted basis functions of B2U symmetry.
 There are     9 symmetry adapted basis functions of B3U symmetry.
    50 basis functions,   114 primitive gaussians,    59 cartesian basis functions
     9 alpha electrons        7 beta electrons
       nuclear repulsion energy         0.0000000000 Hartrees.
 IExCor=    0 DFT=F Ex=HF Corr=None ExCW=0 ScaHFX=  1.000000
 ScaDFX=  1.000000  1.000000  1.000000  1.000000 ScalE2=  1.000000  1.000000
 IRadAn=      5 IRanWt=     -1 IRanGd=            0 ICorTp=0 IEmpDi=  4
 NAtoms=    1 NActive=    1 NUniq=    1 SFac= 1.00D+00 NAtFMM=   60 NAOKFM=F Big=F
 Integral buffers will be    131072 words long.
 Raffenetti 2 integral format.
 Two-electron integral symmetry is turned on.
 Leave Link  301 at Mon Oct  5 21:35:32 2020, MaxMem=   268435456 cpu:               0.9 elap:               0.2
 (Enter /applis/site/cecic/gaussian16/B.01/nehalem/g16/l302.exe)
 NPDir=0 NMtPBC=     1 NCelOv=     1 NCel=       1 NClECP=     1 NCelD=      1
         NCelK=      1 NCelE2=     1 NClLst=     1 CellRange=     0.0.
 One-electron integrals computed using PRISM.
 One-electron integral symmetry used in STVInt
 NBasis=    50 RedAO= T EigKep=  1.62D-02  NBF=    12     3     3     3     2     9     9     9
 NBsUse=    50 1.00D-06 EigRej= -1.00D+00 NBFU=    12     3     3     3     2     9     9     9
 Leave Link  302 at Mon Oct  5 21:35:32 2020, MaxMem=   268435456 cpu:               1.6 elap:               0.3
 (Enter /applis/site/cecic/gaussian16/B.01/nehalem/g16/l303.exe)
 DipDrv:  MaxL=1.
 Leave Link  303 at Mon Oct  5 21:35:32 2020, MaxMem=   268435456 cpu:               0.8 elap:               0.2
 (Enter /applis/site/cecic/gaussian16/B.01/nehalem/g16/l401.exe)
 ExpMin= 4.19D-02 ExpMax= 4.56D+05 ExpMxC= 1.44D+03 IAcc=3 IRadAn=         5 AccDes= 0.00D+00
 Harris functional with IExCor=  205 and IRadAn=       5 diagonalized for initial guess.
 HarFok:  IExCor=  205 AccDes= 0.00D+00 IRadAn=         5 IDoV= 1 UseB2=F ITyADJ=14
 ICtDFT=  3500011 ScaDFX=  1.000000  1.000000  1.000000  1.000000
 FoFCou: FMM=F IPFlag=           0 FMFlag=      100000 FMFlg1=           0
         NFxFlg=           0 DoJE=T BraDBF=F KetDBF=T FulRan=T
         wScrn=  0.000000 ICntrl=       500 IOpCl=  0 I1Cent=   200000004 NGrid=           0
         NMat0=    1 NMatS0=      1 NMatT0=    0 NMatD0=    1 NMtDS0=    0 NMtDT0=    0
 Petite list used in FoFCou.
 Harris En= -458.668384623362    
 JPrj=0 DoOrth=F DoCkMO=F.
 Initial guess orbital symmetries:
       Occupied  (A1G) (A1G) (T1U) (T1U) (T1U) (A1G) (T1U) (T1U)
                 (T1U)
       Virtual   (A1G) (T1U) (T1U) (T1U) (T2G) (T2G) (T2G) (EG)
                 (EG) (T1U) (T1U) (T1U) (T2G) (T2G) (T2G) (EG)
                 (EG) (A1G) (T2U) (T2U) (T2U) (A2U) (T1U) (T1U)
                 (T1U) (T2G) (T2G) (T2G) (EG) (EG) (T1U) (T1U)
                 (T1U) (T2U) (T2U) (T2U) (A2U) (T1U) (T1U) (T1U)
                 (A1G)
 Leave Link  401 at Mon Oct  5 21:35:32 2020, MaxMem=   268435456 cpu:               2.0 elap:               0.3
 (Enter /applis/site/cecic/gaussian16/B.01/nehalem/g16/l502.exe)
 Keep R1 and R2 ints in memory in symmetry-blocked form, NReq=4746118.
 FoFCou: FMM=F IPFlag=           0 FMFlag=           0 FMFlg1=           0
         NFxFlg=           0 DoJE=F BraDBF=F KetDBF=F FulRan=T
         wScrn=  0.000000 ICntrl=       600 IOpCl=  0 I1Cent=           0 NGrid=           0
         NMat0=    1 NMatS0=   1275 NMatT0=    0 NMatD0=    1 NMtDS0=    0 NMtDT0=    0
 Petite list used in FoFCou.
 Restricted open shell SCF:
 Using DIIS extrapolation, IDIIS=  1040.
 NGot=   268435456 LenX=   268204232 LenY=   268200310
 Requested convergence on RMS density matrix=1.00D-08 within 128 cycles.
 Requested convergence on MAX density matrix=1.00D-06.
 Requested convergence on             energy=1.00D-06.
 No special actions if energy rises.

 Cycle   1  Pass 1  IDiag  1:
 Density matrix breaks symmetry, PCut= 1.00D-07
 Density has only Abelian symmetry.
 E= -458.962073440742    
 DIIS: error= 8.82D-02 at cycle   1 NSaved=   1.
 NSaved= 1 IEnMin= 1 EnMin= -458.962073440742     IErMin= 1 ErrMin= 8.82D-02
 ErrMax= 8.82D-02  0.00D+00 EMaxC= 1.00D-01 BMatC= 2.00D-01 BMatP= 2.00D-01
 IDIUse=3 WtCom= 1.18D-01 WtEn= 8.82D-01
 Coeff-Com:  0.100D+01
 Coeff-En:   0.100D+01
 Coeff:      0.100D+01
 Gap=     0.387 Goal=   None    Shift=    0.000
 GapD=    0.387 DampG=1.000 DampE=0.500 DampFc=0.5000 IDamp=-1.
 Damping current iteration by 5.00D-01
 RMSDP=7.86D-03 MaxDP=1.88D-01              OVMax= 2.27D-01

 Cycle   2  Pass 1  IDiag  1:
 Density matrix breaks symmetry, PCut= 1.00D-07
 Density has only Abelian symmetry.
 E= -458.994611419771     Delta-E=       -0.032537979029 Rises=F Damp=T
 DIIS: error= 4.04D-02 at cycle   2 NSaved=   2.
 NSaved= 2 IEnMin= 2 EnMin= -458.994611419771     IErMin= 2 ErrMin= 4.04D-02
 ErrMax= 4.04D-02  0.00D+00 EMaxC= 1.00D-01 BMatC= 3.43D-02 BMatP= 2.00D-01
 IDIUse=3 WtCom= 5.96D-01 WtEn= 4.04D-01
 Coeff-Com: -0.265D+00 0.127D+01
 Coeff-En:   0.162D+00 0.838D+00
 Coeff:     -0.927D-01 0.109D+01
 Gap=     0.348 Goal=   None    Shift=    0.000
 RMSDP=3.55D-03 MaxDP=7.64D-02 DE=-3.25D-02 OVMax= 2.18D-01

 Cycle   3  Pass 1  IDiag  1:
 Density matrix breaks symmetry, PCut= 1.00D-07
 Density has only Abelian symmetry.
 E= -459.022183578052     Delta-E=       -0.027572158281 Rises=F Damp=F
 DIIS: error= 3.35D-02 at cycle   3 NSaved=   3.
 NSaved= 3 IEnMin= 3 EnMin= -459.022183578052     IErMin= 3 ErrMin= 3.35D-02
 ErrMax= 3.35D-02  0.00D+00 EMaxC= 1.00D-01 BMatC= 1.85D-02 BMatP= 3.43D-02
 IDIUse=3 WtCom= 6.65D-01 WtEn= 3.35D-01
 Coeff-Com: -0.274D+00 0.645D+00 0.629D+00
 Coeff-En:   0.000D+00 0.119D+00 0.881D+00
 Coeff:     -0.182D+00 0.469D+00 0.713D+00
 Gap=     0.357 Goal=   None    Shift=    0.000
 RMSDP=3.16D-03 MaxDP=7.80D-02 DE=-2.76D-02 OVMax= 1.26D-01

 Cycle   4  Pass 1  IDiag  1:
 Density matrix breaks symmetry, PCut= 1.00D-07
 Density has only Abelian symmetry.
 E= -459.046091241464     Delta-E=       -0.023907663412 Rises=F Damp=F
 DIIS: error= 5.41D-03 at cycle   4 NSaved=   4.
 NSaved= 4 IEnMin= 4 EnMin= -459.046091241464     IErMin= 4 ErrMin= 5.41D-03
 ErrMax= 5.41D-03  0.00D+00 EMaxC= 1.00D-01 BMatC= 6.93D-04 BMatP= 1.85D-02
 IDIUse=3 WtCom= 9.46D-01 WtEn= 5.41D-02
 Coeff-Com: -0.113D+00 0.258D+00 0.225D+00 0.631D+00
 Coeff-En:   0.000D+00 0.000D+00 0.000D+00 0.100D+01
 Coeff:     -0.107D+00 0.244D+00 0.213D+00 0.651D+00
 Gap=     0.352 Goal=   None    Shift=    0.000
 RMSDP=9.99D-04 MaxDP=2.09D-02 DE=-2.39D-02 OVMax= 2.27D-02

 Cycle   5  Pass 1  IDiag  1:
 Density matrix breaks symmetry, PCut= 1.00D-07
 Density has only Abelian symmetry.
 E= -459.046163612170     Delta-E=       -0.000072370706 Rises=F Damp=F
 DIIS: error= 5.21D-03 at cycle   5 NSaved=   5.
 NSaved= 5 IEnMin= 5 EnMin= -459.046163612170     IErMin= 5 ErrMin= 5.21D-03
 ErrMax= 5.21D-03  0.00D+00 EMaxC= 1.00D-01 BMatC= 4.56D-04 BMatP= 6.93D-04
 IDIUse=3 WtCom= 9.48D-01 WtEn= 5.21D-02
 Coeff-Com: -0.280D-01 0.613D-01-0.115D+00-0.662D-01 0.115D+01
 Coeff-En:   0.000D+00 0.000D+00 0.000D+00 0.452D+00 0.548D+00
 Coeff:     -0.266D-01 0.581D-01-0.109D+00-0.392D-01 0.112D+01
 Gap=     0.347 Goal=   None    Shift=    0.000
 RMSDP=4.30D-04 MaxDP=9.66D-03 DE=-7.24D-05 OVMax= 1.74D-02

 Cycle   6  Pass 1  IDiag  1:
 Density matrix breaks symmetry, PCut= 1.00D-07
 Density has only Abelian symmetry.
 E= -459.046766252323     Delta-E=       -0.000602640152 Rises=F Damp=F
 DIIS: error= 8.01D-04 at cycle   6 NSaved=   6.
 NSaved= 6 IEnMin= 6 EnMin= -459.046766252323     IErMin= 6 ErrMin= 8.01D-04
 ErrMax= 8.01D-04  0.00D+00 EMaxC= 1.00D-01 BMatC= 1.70D-05 BMatP= 4.56D-04
 IDIUse=3 WtCom= 9.92D-01 WtEn= 8.01D-03
 Coeff-Com: -0.116D-01 0.242D-01 0.201D-01-0.620D-01-0.149D+00 0.118D+01
 Coeff-En:   0.000D+00 0.000D+00 0.000D+00 0.000D+00 0.000D+00 0.100D+01
 Coeff:     -0.115D-01 0.240D-01 0.200D-01-0.615D-01-0.148D+00 0.118D+01
 Gap=     0.348 Goal=   None    Shift=    0.000
 RMSDP=7.60D-05 MaxDP=1.81D-03 DE=-6.03D-04 OVMax= 1.78D-03

 Cycle   7  Pass 1  IDiag  1:
 Density matrix breaks symmetry, PCut= 1.00D-07
 Density has only Abelian symmetry.
 E= -459.046781066745     Delta-E=       -0.000014814422 Rises=F Damp=F
 DIIS: error= 4.89D-04 at cycle   7 NSaved=   7.
 NSaved= 7 IEnMin= 7 EnMin= -459.046781066745     IErMin= 7 ErrMin= 4.89D-04
 ErrMax= 4.89D-04  0.00D+00 EMaxC= 1.00D-01 BMatC= 4.15D-06 BMatP= 1.70D-05
 IDIUse=3 WtCom= 9.95D-01 WtEn= 4.89D-03
 Coeff-Com: -0.158D-02 0.381D-02-0.457D-02-0.158D-01-0.489D-01 0.537D-01
 Coeff-Com:  0.101D+01
 Coeff-En:   0.000D+00 0.000D+00 0.000D+00 0.000D+00 0.000D+00 0.000D+00
 Coeff-En:   0.100D+01
 Coeff:     -0.157D-02 0.379D-02-0.455D-02-0.157D-01-0.487D-01 0.534D-01
 Coeff:      0.101D+01
 Gap=     0.348 Goal=   None    Shift=    0.000
 RMSDP=4.44D-05 MaxDP=1.26D-03 DE=-1.48D-05 OVMax= 1.70D-03

 Cycle   8  Pass 1  IDiag  1:
 Density matrix breaks symmetry, PCut= 1.00D-07
 Density has only Abelian symmetry.
 E= -459.046786574051     Delta-E=       -0.000005507306 Rises=F Damp=F
 DIIS: error= 6.14D-05 at cycle   8 NSaved=   8.
 NSaved= 8 IEnMin= 8 EnMin= -459.046786574051     IErMin= 8 ErrMin= 6.14D-05
 ErrMax= 6.14D-05  0.00D+00 EMaxC= 1.00D-01 BMatC= 7.62D-08 BMatP= 4.15D-06
 IDIUse=1 WtCom= 1.00D+00 WtEn= 0.00D+00
 Coeff-Com:  0.119D-03-0.338D-03-0.260D-03 0.353D-02 0.184D-01-0.700D-01
 Coeff-Com: -0.253D+00 0.130D+01
 Coeff:      0.119D-03-0.338D-03-0.260D-03 0.353D-02 0.184D-01-0.700D-01
 Coeff:     -0.253D+00 0.130D+01
 Gap=     0.348 Goal=   None    Shift=    0.000
 RMSDP=7.90D-06 MaxDP=2.37D-04 DE=-5.51D-06 OVMax= 2.75D-04

 Cycle   9  Pass 1  IDiag  1:
 Density matrix breaks symmetry, PCut= 1.00D-07
 Density has only Abelian symmetry.
 E= -459.046786670197     Delta-E=       -0.000000096146 Rises=F Damp=F
 DIIS: error= 6.46D-06 at cycle   9 NSaved=   9.
 NSaved= 9 IEnMin= 9 EnMin= -459.046786670197     IErMin= 9 ErrMin= 6.46D-06
 ErrMax= 6.46D-06  0.00D+00 EMaxC= 1.00D-01 BMatC= 7.36D-10 BMatP= 7.62D-08
 IDIUse=1 WtCom= 1.00D+00 WtEn= 0.00D+00
 Coeff-Com:  0.168D-04-0.351D-04 0.977D-04-0.273D-04-0.819D-03 0.414D-02
 Coeff-Com:  0.166D-01-0.765D-01 0.106D+01
 Coeff:      0.168D-04-0.351D-04 0.977D-04-0.273D-04-0.819D-03 0.414D-02
 Coeff:      0.166D-01-0.765D-01 0.106D+01
 Gap=     0.348 Goal=   None    Shift=    0.000
 RMSDP=6.22D-07 MaxDP=1.80D-05 DE=-9.61D-08 OVMax= 2.36D-05

 Cycle  10  Pass 1  IDiag  1:
 Density matrix breaks symmetry, PCut= 1.00D-07
 Density has only Abelian symmetry.
 E= -459.046786671164     Delta-E=       -0.000000000967 Rises=F Damp=F
 DIIS: error= 5.01D-07 at cycle  10 NSaved=  10.
 NSaved=10 IEnMin=10 EnMin= -459.046786671164     IErMin=10 ErrMin= 5.01D-07
 ErrMax= 5.01D-07  0.00D+00 EMaxC= 1.00D-01 BMatC= 5.36D-12 BMatP= 7.36D-10
 IDIUse=1 WtCom= 1.00D+00 WtEn= 0.00D+00
 Coeff-Com:  0.257D-05-0.512D-05 0.172D-04 0.155D-05-0.157D-03 0.680D-03
 Coeff-Com:  0.119D-02-0.704D-02 0.194D-01 0.986D+00
 Coeff:      0.257D-05-0.512D-05 0.172D-04 0.155D-05-0.157D-03 0.680D-03
 Coeff:      0.119D-02-0.704D-02 0.194D-01 0.986D+00
 Gap=     0.348 Goal=   None    Shift=    0.000
 RMSDP=5.24D-08 MaxDP=1.64D-06 DE=-9.67D-10 OVMax= 1.74D-06

 Cycle  11  Pass 1  IDiag  1:
 Density matrix breaks symmetry, PCut= 1.00D-07
 Density has only Abelian symmetry.
 E= -459.046786671170     Delta-E=       -0.000000000006 Rises=F Damp=F
 DIIS: error= 6.93D-08 at cycle  11 NSaved=  11.
 NSaved=11 IEnMin=11 EnMin= -459.046786671170     IErMin=11 ErrMin= 6.93D-08
 ErrMax= 6.93D-08  0.00D+00 EMaxC= 1.00D-01 BMatC= 1.07D-13 BMatP= 5.36D-12
 IDIUse=1 WtCom= 1.00D+00 WtEn= 0.00D+00
 Coeff-Com:  0.131D-06-0.384D-06 0.565D-06 0.591D-05 0.218D-04-0.839D-04
 Coeff-Com: -0.553D-03 0.242D-02-0.127D-01-0.638D-01 0.107D+01
 Coeff:      0.131D-06-0.384D-06 0.565D-06 0.591D-05 0.218D-04-0.839D-04
 Coeff:     -0.553D-03 0.242D-02-0.127D-01-0.638D-01 0.107D+01
 Gap=     0.348 Goal=   None    Shift=    0.000
 RMSDP=8.18D-09 MaxDP=2.58D-07 DE=-6.14D-12 OVMax= 2.59D-07

 Density matrix breaks symmetry, PCut= 1.00D-07
 Density has only Abelian symmetry.
 SCF Done:  E(ROHF) =  -459.046786671     A.U. after   11 cycles
            NFock= 11  Conv=0.82D-08     -V/T= 2.0001
 <Sx>= 0.0000 <Sy>= 0.0000 <Sz>= 1.0000 <S**2>= 2.0000 S= 1.0000
 <L.S>= 0.000000000000E+00
 KE= 4.590151599237D+02 PE=-1.086294229657D+03 EE= 1.682322830617D+02
 Annihilation of the first spin contaminant:
 S**2 before annihilation     2.0000,   after     2.0000
 Leave Link  502 at Mon Oct  5 21:35:34 2020, MaxMem=   268435456 cpu:               7.8 elap:               1.4
 (Enter /applis/site/cecic/gaussian16/B.01/nehalem/g16/l801.exe)
 Windowed orbitals will be sorted by symmetry type.
 Density matrix breaks symmetry, PCut= 1.00D-07
 Density has only Abelian symmetry.
 GenMOA:  NOpAll= 48 NOp2=8 NOpUse=  8 JSym2X=1
 FoFJK:  IHMeth= 1 ICntrl=       0 DoSepK=F KAlg= 0 I1Cent=           0 FoldK=F
 IRaf=         0 NMat=       1 IRICut=       1 DoRegI=T DoRafI=F ISym2E= 1 IDoP0=0 IntGTp=1.
 FoFCou: FMM=F IPFlag=           0 FMFlag=      100000 FMFlg1=           0
         NFxFlg=           0 DoJE=F BraDBF=F KetDBF=F FulRan=T
         wScrn=  0.000000 ICntrl=         0 IOpCl=  1 I1Cent=           0 NGrid=           0
         NMat0=    1 NMatS0=      1 NMatT0=    0 NMatD0=    1 NMtDS0=    0 NMtDT0=    0
 Petite list used in FoFCou.
 <Sx>= 0.0000 <Sy>= 0.0000 <Sz>= 1.0000 <S**2>= 2.0000 S= 1.0000
 ExpMin= 4.19D-02 ExpMax= 4.56D+05 ExpMxC= 1.44D+03 IAcc=3 IRadAn=         5 AccDes= 0.00D+00
 HarFok:  IExCor=  205 AccDes= 0.00D+00 IRadAn=         5 IDoV=-2 UseB2=F ITyADJ=14
 ICtDFT= 12500011 ScaDFX=  1.000000  1.000000  1.000000  1.000000
 Largest valence mixing into a core orbital is  2.91D-04
 Largest core mixing into a valence orbital is  1.13D-04
 Largest valence mixing into a core orbital is  3.48D-04
 Largest core mixing into a valence orbital is  1.70D-04
 Range of M.O.s used for correlation:     6    50
 NBasis=    50 NAE=     9 NBE=     7 NFC=     5 NFV=     0
 NROrb=     45 NOA=     4 NOB=     2 NVA=    41 NVB=    43
 Singles contribution to E2=   -0.4119662086D-02
 Leave Link  801 at Mon Oct  5 21:35:34 2020, MaxMem=   268435456 cpu:               2.6 elap:               0.4
 (Enter /applis/site/cecic/gaussian16/B.01/nehalem/g16/l804.exe)
 Open-shell transformation, MDV=   268435456 ITran=4 ISComp=2.
 Unit  1 TFree=         63383 TCopy=        259638.
 Semi-Direct transformation.
 ModeAB=           2 MOrb=             4 LenV=     268139462
 LASXX=        21445 LTotXX=       21445 LenRXX=       21445
 LTotAB=       23654 MaxLAS=      318600 LenRXY=      318600
 NonZer=      345600 LenScr=      917504 LnRSAI=           0
 LnScr1=           0 LExtra=           0 Total=      1257549
 MaxDsk=          -1 SrtSym=           F ITran=            4
 DoSDTr:  NPSUse=  8
 JobTyp=1 Pass  1:  I=   1 to   4.
 (rs|ai) integrals will be sorted in core.
 Complete sort for first half transformation.
 First half transformation complete.
 Complete sort for second half transformation.
 Second half transformation complete.
 ModeAB=           2 MOrb=             2 LenV=     268139462
 LASXX=        11107 LTotXX=       11107 LenRXX=      159300
 LTotAB=       10107 MaxLAS=      159300 LenRXY=       10107
 NonZer=      172800 LenScr=      720896 LnRSAI=           0
 LnScr1=           0 LExtra=           0 Total=       890303
 MaxDsk=          -1 SrtSym=           F ITran=            4
 DoSDTr:  NPSUse=  8
 JobTyp=2 Pass  1:  I=   1 to   2.
 (rs|ai) integrals will be sorted in core.
 Complete sort for first half transformation.
 First half transformation complete.
 Complete sort for second half transformation.
 Second half transformation complete.
 Spin components of T(2) and E(2):
     alpha-alpha T2 =       0.8707112944D-02 E2=     -0.2537256031D-01
     alpha-beta  T2 =       0.3325129948D-01 E2=     -0.9968910327D-01
     beta-beta   T2 =       0.1363685431D-02 E2=     -0.3624739305D-02
 ANorm=    0.1022536763D+01
 E2 =    -0.1328060650D+00 EUMP2 =    -0.45917959273614D+03
 (S**2,0)=  0.20000D+01           (S**2,1)=  0.20000D+01
 E(PUHF)=      -0.45904678667D+03        E(PMP2)=      -0.45917959274D+03
 Leave Link  804 at Mon Oct  5 21:35:35 2020, MaxMem=   268435456 cpu:               3.6 elap:               0.5
 (Enter /applis/site/cecic/gaussian16/B.01/nehalem/g16/l913.exe)
 CIDS:  MDV=   268435456.
 Frozen-core window:  NFC=   5 NFV=   0.
 IFCWin=0 IBDFC=1 NFBD=     0     0 NFCmp=     0     0 NFFFC=     0     0
 Using original routines for 1st iteration.
 Using DD4UQ or CC4UQ for 2nd and later iterations.
 Keep R2 and R3 ints in memory in symmetry-blocked form, NReq=4749862.
 FoFCou: FMM=F IPFlag=           0 FMFlag=           0 FMFlg1=           0
         NFxFlg=           0 DoJE=F BraDBF=F KetDBF=F FulRan=T
         wScrn=  0.000000 ICntrl=       600 IOpCl=  0 I1Cent=           0 NGrid=           0
         NMat0=    1 NMatS0=   1275 NMatT0=    0 NMatD0=    1 NMtDS0=    0 NMtDT0=    0
 Petite list used in FoFCou.
 CIDS: In Core Option IDoMem=           1.
 CCSD(T)
 =======
 Iterations=  50 Convergence= 0.100D-06
 Produce multiple copies of IABC intergrals
 Iteration Nr.   1
 **********************
 DD1Dir will call FoFMem   1 times, MxPair=        24
 NAB=     8 NAA=     6 NBB=     1.
 DD1Dir will call FoFMem   1 times, MxPair=        24
 NAB=     8 NAA=     6 NBB=     1.
 MP4(R+Q)=  0.23976180D-01
 Maximum subspace dimension=  5
 A-vector RMS=  3.3706690D-04 Max=  1.2162358D-03 conv= 1.00D-05.
 RLE energy=       -0.1297386694
 E3=       -0.20875457D-01        EROMP3=      -0.45920046819D+03
 E4(SDQ)=  -0.17988195D-02        ROMP4(SDQ)=  -0.45920226701D+03
 VARIATIONAL ENERGIES WITH THE FIRST-ORDER WAVEFUNCTION:
 DE(Corr)= -0.12966322     E(Corr)=     -459.17644989    
 NORM(A)=   0.10213613D+01
 Iteration Nr.   2
 **********************
 DD1Dir will call FoFMem   1 times, MxPair=        24
 NAB=     8 NAA=     6 NBB=     1.
 A-vector RMS=  1.8170775D-03 Max=  6.6829316D-03 conv= 1.00D-05.
 RLE energy=       -0.1343625140
 DE(Corr)= -0.15010959     E(CORR)=     -459.19689626     Delta=-2.04D-02
 NORM(A)=   0.10229873D+01
 Iteration Nr.   3
 **********************
 DD1Dir will call FoFMem   1 times, MxPair=        24
 NAB=     8 NAA=     6 NBB=     1.
 A-vector RMS=  1.5091542D-03 Max=  5.6598353D-03 conv= 1.00D-05.
 RLE energy=       -0.1468545371
 DE(Corr)= -0.15097920     E(CORR)=     -459.19776587     Delta=-8.70D-04
 NORM(A)=   0.10279993D+01
 Iteration Nr.   4
 **********************
 DD1Dir will call FoFMem   1 times, MxPair=        24
 NAB=     8 NAA=     6 NBB=     1.
 A-vector RMS=  6.2009732D-04 Max=  2.4557836D-03 conv= 1.00D-05.
 RLE energy=       -0.1544181210
 DE(Corr)= -0.15354088     E(CORR)=     -459.20032755     Delta=-2.56D-03
 NORM(A)=   0.10314763D+01
 Iteration Nr.   5
 **********************
 DD1Dir will call FoFMem   1 times, MxPair=        24
 NAB=     8 NAA=     6 NBB=     1.
 A-vector RMS=  6.3953158D-05 Max=  2.7726433D-04 conv= 1.00D-05.
 RLE energy=       -0.1557982569
 DE(Corr)= -0.15509307     E(CORR)=     -459.20187974     Delta=-1.55D-03
 NORM(A)=   0.10321377D+01
 Iteration Nr.   6
 **********************
 DD1Dir will call FoFMem   1 times, MxPair=        24
 NAB=     8 NAA=     6 NBB=     1.
 A-vector RMS=  3.9891156D-05 Max=  1.3412906D-04 conv= 1.00D-05.
 RLE energy=       -0.1552571774
 DE(Corr)= -0.15536808     E(CORR)=     -459.20215475     Delta=-2.75D-04
 NORM(A)=   0.10318795D+01
 Iteration Nr.   7
 **********************
 DD1Dir will call FoFMem   1 times, MxPair=        24
 NAB=     8 NAA=     6 NBB=     1.
 A-vector RMS=  1.2173191D-06 Max=  9.2250499D-06 conv= 1.00D-05.
 RLE energy=       -0.1552640480
 DE(Corr)= -0.15526151     E(CORR)=     -459.20204818     Delta= 1.07D-04
 NORM(A)=   0.10318832D+01
 Iteration Nr.   8
 **********************
 DD1Dir will call FoFMem   1 times, MxPair=        24
 NAB=     8 NAA=     6 NBB=     1.
 A-vector RMS=  3.8968802D-07 Max=  2.5555467D-06 conv= 1.00D-05.
 RLE energy=       -0.1552627933
 DE(Corr)= -0.15526300     E(CORR)=     -459.20204967     Delta=-1.50D-06
 NORM(A)=   0.10318827D+01
 Iteration Nr.   9
 **********************
 DD1Dir will call FoFMem   1 times, MxPair=        24
 NAB=     8 NAA=     6 NBB=     1.
 A-vector RMS=  8.4626727D-08 Max=  7.7158800D-07 conv= 1.00D-05.
 RLE energy=       -0.1552627496
 DE(Corr)= -0.15526277     E(CORR)=     -459.20204944     Delta= 2.36D-07
 NORM(A)=   0.10318826D+01
 Iteration Nr.  10
 **********************
 DD1Dir will call FoFMem   1 times, MxPair=        24
 NAB=     8 NAA=     6 NBB=     1.
 A-vector RMS=  2.9329509D-08 Max=  1.5443867D-07 conv= 1.00D-05.
 RLE energy=       -0.1552627361
 DE(Corr)= -0.15526274     E(CORR)=     -459.20204941     Delta= 2.47D-08
 NORM(A)=   0.10318826D+01
 CI/CC converged in   10 iterations to DelEn= 2.47D-08 Conv= 1.00D-07 ErrA1= 2.93D-08 Conv= 1.00D-05
 Wavefunction amplitudes converged. E(Corr)=     -459.20204941    
 Largest amplitude= 3.86D-02
 Time for triples=     1266.18 seconds.
 T4(CCSD)= -0.44788914D-02
 T5(CCSD)= -0.92924122D-04
 CCSD(T)= -0.45920662123D+03
 Discarding MO integrals.
 Leave Link  913 at Mon Oct  5 21:38:33 2020, MaxMem=   268435456 cpu:            1276.8 elap:             177.6
 (Enter /applis/site/cecic/gaussian16/B.01/nehalem/g16/l601.exe)
 Copying SCF densities to generalized density rwf, IOpCl= 0 IROHF=1.
 SCF density gives NOpUse=  8 NOpAll= 48.
 Marking SCF density as not fully symmetric.

 **********************************************************************

            Population analysis using the SCF Density.

 **********************************************************************

 Orbital symmetries:
       Occupied  (A1G) (A1G) (T1U) (T1U) (T1U) (A1G) (?A) (?A)
                 (?A)
       Virtual   (?B) (?A) (?A) (?A) (?B) (T2G) (T2G) (T2G) (?B)
                 (?A) (?A) (?A) (?B) (T2G) (T2G) (T2G) (?B) (?B)
                 (?A) (?A) (A2U) (?A) (?A) (?A) (?A) (?B) (T2G)
                 (T2G) (T2G) (?B) (T1U) (T1U) (T1U) (?A) (?A) (A2U)
                 (?A) (?A) (?A) (?A) (A1G)
 Unable to determine electronic state:  an orbital has unidentified symmetry.
 Alpha  occ. eigenvalues -- -105.37402 -11.08809  -8.56912  -8.56912  -8.54243
 Alpha  occ. eigenvalues --   -1.59545  -0.98986  -0.98986  -0.92250
 Alpha virt. eigenvalues --   -0.11182  -0.07631  -0.07631  -0.06836   0.01259
 Alpha virt. eigenvalues --    0.01259   0.03634   0.03634   0.04243   0.29999
 Alpha virt. eigenvalues --    0.29999   0.32643   0.48798   0.48798   0.52194
 Alpha virt. eigenvalues --    0.52194   0.53142   0.55131   0.79959   0.79959
 Alpha virt. eigenvalues --    0.82016   0.82016   0.83225   0.83225   0.83615
 Alpha virt. eigenvalues --    2.02412   2.02412   2.06332   2.06332   2.07639
 Alpha virt. eigenvalues --    2.18693   2.18693   2.23778   2.55102   2.55102
 Alpha virt. eigenvalues --    2.58644   2.58644   2.60736   2.60736   2.61417
 Alpha virt. eigenvalues --    4.57642
          Condensed to atoms (all electrons):
               1
     1  Cl  16.000000
          Atomic-Atomic Spin Densities.
               1
     1  Cl   2.000000
 Mulliken charges and spin densities:
               1          2
     1  Cl   1.000000   2.000000
 Sum of Mulliken charges =   1.00000   2.00000
 Mulliken charges and spin densities with hydrogens summed into heavy atoms:
               1          2
     1  Cl   1.000000   2.000000
 Electronic spatial extent (au):  <R**2>=             20.6941
 Charge=              1.0000 electrons
 Dipole moment (field-independent basis, Debye):
    X=              0.0000    Y=              0.0000    Z=              0.0000  Tot=              0.0000
 Quadrupole moment (field-independent basis, Debye-Ang):
   XX=             -8.6578   YY=             -8.6578   ZZ=            -10.5187
   XY=             -0.0000   XZ=             -0.0000   YZ=              0.0000
 Traceless Quadrupole moment (field-independent basis, Debye-Ang):
   XX=              0.6203   YY=              0.6203   ZZ=             -1.2406
   XY=             -0.0000   XZ=             -0.0000   YZ=              0.0000
 Octapole moment (field-independent basis, Debye-Ang**2):
  XXX=              0.0000  YYY=              0.0000  ZZZ=              0.0000  XYY=              0.0000
  XXY=              0.0000  XXZ=              0.0000  XZZ=              0.0000  YZZ=              0.0000
  YYZ=              0.0000  XYZ=              0.0000
 Hexadecapole moment (field-independent basis, Debye-Ang**3):
 XXXX=             -7.0342 YYYY=             -7.0342 ZZZZ=            -10.0704 XXXY=              0.0000
 XXXZ=             -0.0000 YYYX=             -0.0000 YYYZ=              0.0000 ZZZX=             -0.0000
 ZZZY=              0.0000 XXYY=             -2.3447 XXZZ=             -2.8511 YYZZ=             -2.8511
 XXYZ=              0.0000 YYXZ=             -0.0000 ZZXY=             -0.0000
 N-N= 0.000000000000D+00 E-N=-1.086294227485D+03  KE= 4.590151599237D+02
 Symmetry AG   KE= 3.245541395641D+02
 Symmetry B1G  KE= 3.376275156981D-54
 Symmetry B2G  KE= 3.310244285180D-37
 Symmetry B3G  KE= 3.310244285180D-37
 Symmetry AU   KE= 5.669766611335D-36
 Symmetry B1U  KE= 4.655048914844D+01
 Symmetry B2U  KE= 4.395526560555D+01
 Symmetry B3U  KE= 4.395526560555D+01
 Symmetry AG   SP= 0.000000000000D+00
 Symmetry B1G  SP= 0.000000000000D+00
 Symmetry B2G  SP= 0.000000000000D+00
 Symmetry B3G  SP= 0.000000000000D+00
 Symmetry AU   SP= 2.249877301925D-36
 Symmetry B1U  SP= 7.462695768758D-50
 Symmetry B2U  SP= 1.000000000000D+00
 Symmetry B3U  SP= 1.000000000000D+00
                          Isotropic Fermi Contact Couplings
        Atom                 a.u.       MegaHertz       Gauss      10(-4) cm-1
     1  Cl(35)             0.00000       0.00000       0.00000       0.00000
 --------------------------------------------------------
       Center         ----  Spin Dipole Couplings  ----
                      3XX-RR        3YY-RR        3ZZ-RR
 --------------------------------------------------------
     1   Atom        3.162372      3.162372     -6.324743
 --------------------------------------------------------
                        XY            XZ            YZ
 --------------------------------------------------------
     1   Atom        0.000000      0.000000      0.000000
 --------------------------------------------------------


 ---------------------------------------------------------------------------------
              Anisotropic Spin Dipole Couplings in Principal Axis System
 ---------------------------------------------------------------------------------

       Atom             a.u.   MegaHertz   Gauss  10(-4) cm-1        Axes

              Baa    -6.3247  -331.022  -118.117  -110.417  0.0000  0.0000  1.0000
     1 Cl(35) Bbb     3.1624   165.511    59.058    55.209 -0.0000  1.0000  0.0000
              Bcc     3.1624   165.511    59.058    55.209  1.0000  0.0000  0.0000
 

 ---------------------------------------------------------------------------------

 No NMR shielding tensors so no spin-rotation constants.
 Leave Link  601 at Mon Oct  5 21:38:33 2020, MaxMem=   268435456 cpu:               1.8 elap:               0.3
 (Enter /applis/site/cecic/gaussian16/B.01/nehalem/g16/l9999.exe)
 1\1\GINC-DAHU107\SP\ROCCSD(T)-FC\Aug-CC-pVTZ\Cl1(1+,3)\TINACCIL\05-Oct
 -2020\0\\#P ROCCSD(T)/aug-cc-pvtz\\Title\\1,3\Cl\\Version=ES64L-G16Rev
 B.01\HF=-459.0467867\MP2=-459.1795927\MP3=-459.2004682\PUHF=-459.04678
 67\PMP2-0=-459.1795927\MP4SDQ=-459.202267\CCSD=-459.2020494\CCSD(T)=-4
 59.2066212\RMSD=8.182e-09\PG=OH [O(Cl1)]\\@


 IN SO FAR AS QUANTUM MECHANICS IS CORRECT, CHEMICAL 
 QUESTIONS ARE PROBLEMS IN APPLIED MATHEMATICS.

                    -- EYRING, WALTER, & KIMBALL, 1944
 Job cpu time:       0 days  0 hours 21 minutes 41.3 seconds.
 Elapsed time:       0 days  0 hours  3 minutes  1.7 seconds.
 File lengths (MBytes):  RWF=     23 Int=      0 D2E=      0 Chk=      2 Scr=      1
 Normal termination of Gaussian 16 at Mon Oct  5 21:38:33 2020.
