      -----------------------------------------------------------      
     |                   =====================                   |     
     |                           x T B                           |     
     |                   =====================                   |     
     |                         S. Grimme                         |     
     |          Mulliken Center for Theoretical Chemistry        |     
     |                    University of Bonn                     |     
      -----------------------------------------------------------      

   * xtb version 6.2.2 (9d81278992624c895f80dd42a50cac0aa55982e2) compiled by '@Darwin' on 04/03/2020

   xtb is free software: you can redistribute it and/or modify it under
   the terms of the GNU Lesser General Public License as published by
   the Free Software Foundation, either version 3 of the License, or
   (at your option) any later version.
   
   xtb is distributed in the hope that it will be useful,
   but WITHOUT ANY WARRANTY; without even the implied warranty of
   MERCHANTABILITY or FITNESS FOR A PARTICULAR PURPOSE.  See the
   GNU Lesser General Public License for more details.
   
   Cite this work as:
   * S. Grimme, C. Bannwarth, P. Shushkov, J. Chem. Theory Comput., 2017,
     13, 1989-2009. DOI: 10.1021/acs.jctc.7b00118
   * C. Bannwarth, S. Ehlert and S. Grimme., J. Chem. Theory Comput., 2019,
     15, 1652-1671. DOI: 10.1021/acs.jctc.8b01176
   * P. Pracht, E. Caldeweyher, S. Ehlert, S. Grimme, ChemRxiv, 2019, preprint.
     DOI: 10.26434/chemrxiv.8326202.v1
   
   for DFT-D4:
   * E. Caldeweyher, C. Bannwarth and S. Grimme, J. Chem. Phys., 2017,
     147, 034112. DOI: 10.1063/1.4993215
   * E. Caldeweyher, S. Ehlert, A. Hansen, H. Neugebauer, S. Spicher,
     C. Bannwarth and S. Grimme, J. Chem. Phys., 2019, 150, 154122.
     DOI: 10.1063/1.5090222
   
   for sTDA-xTB:
   * S. Grimme and C. Bannwarth, J. Chem. Phys., 2016, 145, 054103.
     DOI: 10.1063/1.4959605
   
   in the mass-spec context:
   * V. Asgeirsson, C. Bauer and S. Grimme, Chem. Sci., 2017, 8, 4879.
     DOI: 10.1039/c7sc00601b
   
   for metadynamics refer to:
   * S. Grimme, J. Chem. Theory Comput., 2019, 155, 2847-2862
     DOI: 10.1021/acs.jctc.9b00143
   
   with help from (in alphabetical order)
   C. Bannwarth, F. Bohle, G. Brandenburg, E. Caldeweyher, M. Checinski,
   S. Dohm, S. Ehlert, S. Ehrlich, F. März, H. Neugebauer, J. Pisarek,
   P. Pracht, P. Shushkov, and S. Spicher.
   
 * started run on 2020/05/13 at 16:22:17.726     

           -------------------------------------------------
          |                Calculation Setup                |
           -------------------------------------------------

          program call               : xtb --input C2_0_S_0.input C2_0_S_0.xyz --ohess --molden --namespace C2_0_S_0 output.out
          calculation namespace      : C2_0_S_0
          coordinate file            : C2_0_S_0.xyz
          number of atoms            :                     2
          number of electrons        :                     8
          charge                     :                     0
          spin                       :                   0.0
          first test random number   :      0.87386433780620

   ID    Z sym.   atoms
    1    6 C      1, 2

           -------------------------------------------------
          |                 G F N 2 - x T B                 |
           -------------------------------------------------

        Reference                      10.1021/acs.jctc.8b01176
      * Hamiltonian:
        H0-scaling (s, p, d)           1.850000    2.230000    2.230000
        zeta-weighting                 0.500000
      * Dispersion:
        s8                             2.700000
        a1                             0.520000
        a2                             5.000000
        s9                             5.000000
      * Repulsion:
        kExp                           1.500000    1.000000
        rExp                           1.000000
      * Coulomb:
        alpha                          2.000000
        third order                    shell-resolved
        anisotropic                    true
        a3                             3.000000
        a5                             4.000000
        cn-shift                       1.200000
        cn-exp                         4.000000
        max-rad                        5.000000


          ...................................................
          :                      SETUP                      :
          :.................................................:
          :  # basis functions                   8          :
          :  # atomic orbitals                   8          :
          :  # shells                            4          :
          :  # electrons                         8          :
          :  max. iterations                   250          :
          :  Hamiltonian                  GFN2-xTB          :
          :  restarted?                      false          :
          :  GBSA solvation                  false          :
          :  PC potential                    false          :
          :  electronic temp.          300.0000000     K    :
          :  accuracy                    1.0000000          :
          :  -> integral cutoff          0.2500000E+02      :
          :  -> integral neglect         0.1000000E-07      :
          :  -> SCF convergence          0.1000000E-05 Eh   :
          :  -> wf. convergence          0.1000000E-03 e    :
          :  Broyden damping             0.4000000          :
          ...................................................

 iter      E             dE          RMSdq      gap      omega  full diag
   1     -3.9162043 -0.391620E+01  0.127E+01    0.64       0.0  T
   2     -3.9169835 -0.779235E-03  0.753E+00    0.63       1.0  T
   3     -3.9183817 -0.139821E-02  0.125E+00    0.56       1.0  T
   4     -3.9183287  0.530290E-04  0.237E+00    0.58       1.0  T
   5     -3.9184334 -0.104708E-03  0.904E-02    0.52       1.0  T
   6     -3.9184336 -0.165378E-06  0.136E-02    0.52       5.2  T
   7     -3.9184336 -0.501287E-08  0.227E-03    0.52      31.2  T
   8     -3.9184336 -0.837566E-10  0.259E-07    0.52  100000.0  T
   9     -3.9184336  0.133227E-14  0.112E-06    0.52   63239.9  T

   *** convergence criteria satisfied after 9 iterations ***

         #    Occupation            Energy/Eh            Energy/eV
      -------------------------------------------------------------
         1        2.0000           -0.6564948             -17.8641
         2        2.0000           -0.5445812             -14.8188
         3        1.9999           -0.4627114             -12.5910
         4        1.9999           -0.4627114             -12.5910 (HOMO)
         5        0.0001           -0.4436272             -12.0717 (LUMO)
         6                         -0.3271663              -8.9026
         7                         -0.3271663              -8.9026
         8                          0.0706956               1.9237
      -------------------------------------------------------------
                  HL-Gap            0.0190842 Eh            0.5193 eV
             Fermi-level           -0.4528400 Eh          -12.3224 eV

 SCC (total)                   0 d,  0 h,  0 min,  0.001 sec
 SCC setup                      ...        0 min,  0.000 sec (  6.635%)
 Dispersion                     ...        0 min,  0.000 sec (  0.800%)
 integral evaluation            ...        0 min,  0.000 sec ( 24.487%)
 zeroth order Hamiltonian       ...        0 min,  0.000 sec (  0.800%)
 iterations                     ...        0 min,  0.001 sec ( 45.861%)
 molecular gradient             ...        0 min,  0.000 sec ( 16.750%)
 printout                       ...        0 min,  0.000 sec (  3.890%)

         :::::::::::::::::::::::::::::::::::::::::::::::::::::
         ::                     SUMMARY                     ::
         :::::::::::::::::::::::::::::::::::::::::::::::::::::
         :: total energy              -3.903499526753 Eh    ::
         :: gradient norm              0.404930851388 Eh/a0 ::
         :: HOMO-LUMO gap              0.519306250570 eV    ::
         ::.................................................::
         :: SCC energy                -3.918433555537 Eh    ::
         :: -> isotropic ES           -0.010337455155 Eh    ::
         :: -> anisotropic ES          0.003679126891 Eh    ::
         :: -> anisotropic XC         -0.000990696979 Eh    ::
         :: -> dispersion             -0.000364459472 Eh    ::
         :: repulsion energy           0.014934028783 Eh    ::
         :: add. restraining           0.000000000000 Eh    ::
         :::::::::::::::::::::::::::::::::::::::::::::::::::::

      ----------------------------------------------------------- 
     |                   =====================                   |
     |                        A N C O P T                        |
     |                   =====================                   |
     |               Approximate Normal Coordinate               |
     |                Rational Function Optimizer                |
      ----------------------------------------------------------- 

          ...................................................
          :                      SETUP                      :
          :.................................................:
          :   optimization level            normal          :
          :   max. optcycles                   200          :
          :   ANC micro-cycles                  20          :
          :   degrees of freedom                 1          :
          :.................................................:
          :   RF solver                   davidson          :
          :   write xtbopt.log                true          :
          :   linear (good luck)              true          :
          :   energy convergence         0.5000000E-05 Eh   :
          :   grad. convergence          0.1000000E-02 Eh/α :
          :   maximium RF displ.         1.0000000          :
          :   Hlow (freq-cutoff)         0.1000000E-01      :
          :   Hmax (freq-cutoff)         5.0000000          :
          :   S6 in model hess.         20.0000000          :
          ...................................................

generating ANC from model Hessian ...
Using Lindh-Hessian (1995)
 Shifting diagonal of input Hessian by    9.9831758120275983E-003
 Lowest  eigenvalues of input Hessian
   -0.000000    0.000000    0.000000    0.010000    0.010000    0.821672
 Highest eigenvalues
   -0.000000    0.000000    0.000000    0.010000    0.010000    0.821672


........................................................................
.............................. CYCLE    1 ..............................
........................................................................
   1     -3.9184336 -0.391843E+01  0.152E-08    0.52       0.0  T
   2     -3.9184336 -0.888178E-15  0.100E-08    0.52  100000.0  T
   3     -3.9184336  0.177636E-14  0.580E-10    0.52  100000.0  T
     SCC iter.                  ...        0 min,  0.000 sec
     gradient                   ...        0 min,  0.000 sec
 * total energy  :    -3.9034995 Eh     change       -0.3108624E-14 Eh
   gradient norm :     0.4049309 Eh/α   predicted     0.0000000E+00 (-100.00%)
   displ. norm   :     0.4099794 α      lambda       -0.1660133E+00
   maximum displ.:     0.4099794 α      in ANC's #1, #1, #1, ...

........................................................................
.............................. CYCLE    2 ..............................
........................................................................
   1     -4.1475212 -0.414752E+01  0.402E+00    2.54       0.0  T
   2     -4.1476889 -0.167635E-03  0.255E+00    2.58       1.0  T
   3     -4.1477858 -0.969385E-04  0.213E-01    2.64       1.0  T
   4     -4.1477859 -0.102723E-06  0.656E-02    2.64       1.1  T
   5     -4.1477860 -0.528068E-07  0.156E-03    2.64      45.4  T
   6     -4.1477860 -0.332179E-10  0.682E-05    2.64    1036.6  T
   7     -4.1477860 -0.888178E-15  0.387E-06    2.64   18263.3  T
     SCC iter.                  ...        0 min,  0.000 sec
     gradient                   ...        0 min,  0.000 sec
 * total energy  :    -4.0411852 Eh     change       -0.1376856E+00 Eh
   gradient norm :     0.1379489 Eh/α   predicted    -0.9695868E-01 ( -29.58%)
   displ. norm   :     0.2030974 α      lambda       -0.2801705E-01
   maximum displ.:     0.2030974 α      in ANC's #1, #1, #1, ...

........................................................................
.............................. CYCLE    3 ..............................
........................................................................
   1     -4.2809976 -0.428100E+01  0.191E+00    4.18       0.0  T
   2     -4.2810096 -0.120360E-04  0.117E+00    4.19       1.0  T
   3     -4.2810165 -0.686221E-05  0.521E-02    4.21       1.4  T
   4     -4.2810165 -0.103069E-07  0.125E-02    4.21       5.6  T
   5     -4.2810165 -0.120042E-08  0.155E-04    4.21     456.5  T
   6     -4.2810165  0.606004E-11  0.132E-04    4.21     536.1  T
     SCC iter.                  ...        0 min,  0.000 sec
     gradient                   ...        0 min,  0.000 sec
 * total energy  :    -4.0134364 Eh     change        0.2774878E-01 Eh
   gradient norm :     0.5116931 Eh/α   predicted    -0.1458636E-01 (-152.57%)
   displ. norm   :     0.1560738 α      lambda       -0.7986187E-01
   maximum displ.:     0.1560738 α      in ANC's #1, #1, #1, ...

........................................................................
.............................. CYCLE    4 ..............................
........................................................................
   1     -4.1777174 -0.417772E+01  0.131E+00    2.99       0.0  T
   2     -4.1777244 -0.696345E-05  0.811E-01    2.98       1.0  T
   3     -4.1777296 -0.525398E-05  0.511E-02    2.96       1.4  T
   4     -4.1777296  0.305802E-08  0.804E-03    2.96       8.8  T
   5     -4.1777296  0.863444E-07  0.577E-03    2.96      12.2  T
   6     -4.1777297 -0.105756E-06  0.618E-05    2.96    1144.4  T
   7     -4.1777297 -0.137668E-12  0.328E-05    2.96    2156.8  T
     SCC iter.                  ...        0 min,  0.000 sec
     gradient                   ...        0 min,  0.000 sec
 * total energy  :    -4.0454028 Eh     change       -0.3196638E-01 Eh
   gradient norm :     0.0375041 Eh/α   predicted    -0.4090361E-01 (  27.96%)
   displ. norm   :     0.0106569 α      lambda       -0.3996752E-03
   maximum displ.:     0.0106569 α      in ANC's #1, #1, #1, ...

........................................................................
.............................. CYCLE    5 ..............................
........................................................................
   1     -4.1845992 -0.418460E+01  0.948E-02    3.04       0.0  T
   2     -4.1845992 -0.424843E-07  0.587E-02    3.04       1.2  T
   3     -4.1845992 -0.287077E-07  0.372E-03    3.04      19.0  T
   4     -4.1845992 -0.763691E-10  0.136E-04    3.04     519.2  T
   5     -4.1845992 -0.108358E-12  0.443E-06    3.04   15960.6  T
     SCC iter.                  ...        0 min,  0.000 sec
     gradient                   ...        0 min,  0.000 sec
 * total energy  :    -4.0456641 Eh     change       -0.2613262E-03 Eh
   gradient norm :     0.0113141 Eh/α   predicted    -0.1998610E-03 ( -23.52%)
   displ. norm   :     0.0046037 α      lambda       -0.5208814E-04
   maximum displ.:     0.0046037 α      in ANC's #1, #1, #1, ...

........................................................................
.............................. CYCLE    6 ..............................
........................................................................
   1     -4.1875760 -0.418758E+01  0.409E-02    3.07       0.0  T
   2     -4.1875760 -0.768376E-08  0.253E-02    3.07       2.8  T
   3     -4.1875760 -0.512062E-08  0.159E-03    3.07      44.6  T
   4     -4.1875760  0.511205E-08  0.129E-03    3.07      54.7  T
   5     -4.1875760 -0.520877E-08  0.230E-05    3.07    3075.3  T
   6     -4.1875760 -0.129763E-11  0.157E-06    3.07   45076.2  T
     SCC iter.                  ...        0 min,  0.000 sec
     gradient                   ...        0 min,  0.000 sec
 * total energy  :    -4.0456892 Eh     change       -0.2516804E-04 Eh
   gradient norm :     0.0004237 Eh/α   predicted    -0.2604405E-04 (   3.48%)
   displ. norm   :     0.0002492 α      lambda       -0.7338642E-07
   maximum displ.:     0.0002492 α      in ANC's #1, #1, #1, ...

........................................................................
.............................. CYCLE    7 ..............................
........................................................................
   1     -4.1874147 -0.418741E+01  0.221E-03    3.07       0.0  T
   2     -4.1874147 -0.223448E-10  0.137E-03    3.07      51.7  T
   3     -4.1874147 -0.151745E-10  0.853E-05    3.07     829.2  T
   4     -4.1874147 -0.390799E-13  0.165E-07    3.07  100000.0  T
     SCC iter.                  ...        0 min,  0.000 sec
     gradient                   ...        0 min,  0.000 sec
 * total energy  :    -4.0456893 Eh     change       -0.2555207E-07 Eh
   gradient norm :     0.0002185 Eh/α   predicted    -0.3519896E-07 (  37.75%)
   displ. norm   :     0.0000848 α      lambda       -0.9071927E-08
   maximum displ.:     0.0000848 α      in ANC's #1, #1, #1, ...

   *** GEOMETRY OPTIMIZATION CONVERGED AFTER 7 ITERATIONS ***

------------------------------------------------------------------------
 total energy gain   :        -0.1421897 Eh      -89.2254 kcal/mol
 total RMSD          :         0.3337646 a0        0.1766 Å
 total power (kW/mol):       -53.3313045 (step)********** (real)
------------------------------------------------------------------------

 ANCopt (total)                0 d,  0 h,  0 min,  0.005 sec
 optimizer setup                ...        0 min,  0.000 sec (  0.974%)
 model hessian                  ...        0 min,  0.000 sec (  0.323%)
 ANC generation                 ...        0 min,  0.000 sec (  0.418%)
 coordinate transformation      ...        0 min,  0.000 sec (  0.228%)
 single point calculation       ...        0 min,  0.005 sec ( 90.194%)
 optimization log               ...        0 min,  0.000 sec (  2.096%)
 hessian update                 ...        0 min,  0.000 sec (  0.214%)
 rational function              ...        0 min,  0.000 sec (  1.754%)

================
 final structure:
================
2
 xtb: 6.2.2 (9d81278992624c895f80dd42a50cac0aa55982e2)
C         0.58037936760828    0.00000000000000    0.00000000000000
C        -0.58037936760828    0.00000000000000    0.00000000000000

 Bond Distances (Angstroems)
 ---------------------------
C1-C2=1.1608         C2-C1=1.1608         
 C  C  Rav=1.1608 sigma=0.0000  Rmin=1.1608  Rmax=1.1608     1

 selected bond angles (degree)
 --------------------


 selected dihedral angles (degree)
 ---------------------------------

           -------------------------------------------------
          |                Final Singlepoint                |
           -------------------------------------------------

          ...................................................
          :                      SETUP                      :
          :.................................................:
          :  # basis functions                   8          :
          :  # atomic orbitals                   8          :
          :  # shells                            4          :
          :  # electrons                         8          :
          :  max. iterations                   250          :
          :  Hamiltonian                  GFN2-xTB          :
          :  restarted?                      false          :
          :  GBSA solvation                  false          :
          :  PC potential                    false          :
          :  electronic temp.          300.0000000     K    :
          :  accuracy                    1.0000000          :
          :  -> integral cutoff          0.2500000E+02      :
          :  -> integral neglect         0.1000000E-07      :
          :  -> SCF convergence          0.1000000E-05 Eh   :
          :  -> wf. convergence          0.1000000E-03 e    :
          :  Broyden damping             0.4000000          :
          ...................................................

 iter      E             dE          RMSdq      gap      omega  full diag
   1     -4.1874147 -0.418741E+01  0.773E-08    3.07       0.0  T
   2     -4.1874147 -0.266454E-14  0.966E-08    3.07  100000.0  T
   3     -4.1874147  0.888178E-15  0.508E-08    3.07  100000.0  T

   *** convergence criteria satisfied after 3 iterations ***

         #    Occupation            Energy/Eh            Energy/eV
      -------------------------------------------------------------
         1        2.0000           -0.6692481             -18.2112
         2        2.0000           -0.5105917             -13.8939
         3        2.0000           -0.4855580             -13.2127
         4        2.0000           -0.4855580             -13.2127 (HOMO)
         5                         -0.3726706             -10.1409 (LUMO)
         6                         -0.1978085              -5.3826
         7                         -0.1978085              -5.3826
         8                          1.1595343              31.5525
      -------------------------------------------------------------
                  HL-Gap            0.1128874 Eh            3.0718 eV
             Fermi-level           -0.4291143 Eh          -11.6768 eV

 SCC (total)                   0 d,  0 h,  0 min,  0.001 sec
 SCC setup                      ...        0 min,  0.000 sec (  9.377%)
 Dispersion                     ...        0 min,  0.000 sec (  0.645%)
 integral evaluation            ...        0 min,  0.000 sec ( 38.838%)
 zeroth order Hamiltonian       ...        0 min,  0.000 sec (  0.494%)
 iterations                     ...        0 min,  0.000 sec ( 19.438%)
 molecular gradient             ...        0 min,  0.000 sec ( 25.513%)
 printout                       ...        0 min,  0.000 sec (  4.632%)

         :::::::::::::::::::::::::::::::::::::::::::::::::::::
         ::                     SUMMARY                     ::
         :::::::::::::::::::::::::::::::::::::::::::::::::::::
         :: total energy              -4.045689274457 Eh    ::
         :: gradient norm              0.000218503563 Eh/a0 ::
         :: HOMO-LUMO gap              3.071822705477 eV    ::
         ::.................................................::
         :: SCC energy                -4.187414723095 Eh    ::
         :: -> isotropic ES           -0.002647191431 Eh    ::
         :: -> anisotropic ES          0.004181764340 Eh    ::
         :: -> anisotropic XC         -0.000556522084 Eh    ::
         :: -> dispersion             -0.000365153358 Eh    ::
         :: repulsion energy           0.141725448638 Eh    ::
         :: add. restraining           0.000000000000 Eh    ::
         :::::::::::::::::::::::::::::::::::::::::::::::::::::

           ------------------------------------------------- 
          |                Numerical Hessian                |
           ------------------------------------------------- 
step length          :   0.00500
SCC accuracy         :   0.30000
Hessian scale factor :   1.00000
frozen atoms in %    :   0.00000    0
RMS gradient         :   0.00022

writing file <hessian>.

 vibrational frequencies (cm-1)
eigval :        0.00     0.00     0.00     0.00     0.00  2380.16
           -------------------------------------------------
          |                Property Printout                |
           -------------------------------------------------

    * Orbital Energies and Occupations

         #    Occupation            Energy/Eh            Energy/eV
      -------------------------------------------------------------
         1        2.0000           -0.6692481             -18.2112
         2        2.0000           -0.5105917             -13.8939
         3        2.0000           -0.4855580             -13.2127
         4        2.0000           -0.4855580             -13.2127 (HOMO)
         5                         -0.3726706             -10.1409 (LUMO)
         6                         -0.1978085              -5.3826
         7                         -0.1978085              -5.3826
Molecule has the following symmetry elements: (i) (Cinf) (C2) 2*(sigma) 
It seems to be the Dinfh point group
         8                          1.1595343              31.5525
      -------------------------------------------------------------
                  HL-Gap            0.1128874 Eh            3.0718 eV
             Fermi-level           -0.4291143 Eh          -11.6768 eV

     #   Z        covCN         q      C6AA      α(0)
     1   6 C      0.981     0.000    35.905    10.065
     2   6 C      0.981    -0.000    35.905    10.065

 Mol. C6AA /au·bohr⁶  :        143.620732
 Mol. C8AA /au·bohr⁸  :       4153.761137
 Mol. α(0) /au        :         20.129013


Wiberg/Mayer (AO) data.
largest (>0.10) Wiberg bond orders for each atom
          total WBO             WBO to atom ...
     1  C   3.712        C    2 3.712
     2  C   3.712        C    1 3.712

MOs/occ written to file <molden.input>


molecular dipole:
                 x           y           z       tot (Debye)
 q only:        0.000      -0.000      -0.000
   full:        0.000       0.000      -0.000       0.000
molecular quadrupole (traceless):
                xx          xy          yy          xz          yz          zz
 q only:        0.000      -0.000      -0.000      -0.000       0.000      -0.000
  q+dip:        3.056      -0.000      -1.528      -0.000       0.000      -1.528
   full:        1.591      -0.000      -0.795      -0.000       0.000      -0.795

           -------------------------------------------------
          |                Geometry Summary                 |
           -------------------------------------------------

      molecular mass/u    :       24.0214718
   center of mass at/Å    :        0.0000000       0.0000000       0.0000000
  moments of inertia/u·Å² :       -0.2794296E-15   0.8091398E+01   0.8091398E+01
rotational constants/cm⁻¹ :       -0.6032873E+17   0.2083402E+01   0.2083402E+01

 * 1 selected distances

     #   Z        #   Z                                     value/Å
     0 *** --     0 *** --                                0.0000000 (max)

 * 0 distinct bonds (by element types)

   Z      Z             #   av. dist./Å        max./Å        min./Å

           -------------------------------------------------
          |               Frequency Printout                |
           -------------------------------------------------
 vibrational frequencies (cm-1)
eigval :        0.00     0.00     0.00     0.00     0.00  2380.16
 reduced masses (amu)
   1: 12.01   2: 12.01   3: 12.01   4: 12.01   5: 12.01   6: 12.01
 IR intensities (amu)
   1:  0.00   2:  0.00   3:  0.00   4:  0.00   5:  0.00   6:  0.00
 Raman intensities (amu)
   1:  0.00   2:  0.00   3:  0.00   4:  0.00   5:  0.00   6:  0.00
 output can be read by thermo (or use thermo option).
 writing <g98.out> molden fake output.
 recommended (thermochemical) frequency scaling factor: 1.0
           -------------------------------------------------
          |             Thermodynamic Functions             |
           -------------------------------------------------

din symmetry found (for desy threshold:  0.10E+00) used in thermo

          ...................................................
          :                      SETUP                      :
          :.................................................:
          :  # frequencies                           1      :
          :  # imaginary freq.                       0      :
          :  linear?                              true      :
          :  only rotor calc.                    false      :
          :  symmetry                              din      :
          :  rotational number                       2      :
          :  scaling factor                  1.0000000      :
          :  rotor cutoff                   50.0000000 cm⁻¹ :
          :  imag. cutoff                  -20.0000000 cm⁻¹ :
          :.................................................:

    mode    ω/cm⁻¹     T·S(HO)/kcal·mol⁻¹    T·S(FR)/kcal·mol⁻¹   T·S(vib)
   ------------------------------------------------------------------------
   ------------------------------------------------------------------------

   temp. (K)  partition function   enthalpy   heat capacity  entropy
                                   cal/mol     cal/K/mol   cal/K/mol   J/K/mol
 298.15  VIB   1.00                    0.070      0.003      0.000
         ROT   49.7                  592.502      1.987      9.751
         INT   49.7                  592.571      1.990      9.751
         TR   0.114E+27             1481.254      4.968     35.451
         TOT                        2073.8254     6.9581    45.2017   189.1239

   temp. (K)  partition function   enthalpy   heat capacity  entropy
                                   cal/mol     cal/K/mol   cal/K/mol   J/K/mol
 120.00  VIB   1.00                    0.000      0.000     -0.000
         ROT   20.0                  238.471      1.987      7.942
         INT   20.0                  238.471      1.987      7.942
         TR   0.291E+26              596.178      4.968     30.931
         TOT                         834.6492     6.9554    38.8735   162.6467

   temp. (K)  partition function   enthalpy   heat capacity  entropy
                                   cal/mol     cal/K/mol   cal/K/mol   J/K/mol
 100.00  VIB   1.00                    0.000      0.000     -0.000
         ROT   16.7                  198.726      1.987      7.580
         INT   16.7                  198.726      1.987      7.580
         TR   0.221E+26              496.815      4.968     30.026
         TOT                         695.5410     6.9554    37.6058   157.3428

   temp. (K)  partition function   enthalpy   heat capacity  entropy
                                   cal/mol     cal/K/mol   cal/K/mol   J/K/mol
  80.00  VIB   1.00                    0.000      0.000     -0.000
         ROT   13.3                  158.981      1.987      7.136
         INT   13.3                  158.981      1.987      7.136
         TR   0.158E+26              397.452      4.968     28.918
         TOT                         556.4328     6.9554    36.0543   150.8512

   temp. (K)  partition function   enthalpy   heat capacity  entropy
                                   cal/mol     cal/K/mol   cal/K/mol   J/K/mol
  60.00  VIB   1.00                    0.000      0.000     -0.000
         ROT   10.0                  119.236      1.987      6.565
         INT   10.0                  119.236      1.987      6.565
         TR   0.103E+26              298.089      4.968     27.489
         TOT                         417.3246     6.9554    34.0541   142.4822

   temp. (K)  partition function   enthalpy   heat capacity  entropy
                                   cal/mol     cal/K/mol   cal/K/mol   J/K/mol
  40.00  VIB   1.00                    0.000      0.000     -0.000
         ROT   6.67                   79.490      1.987      5.759
         INT   6.67                   79.490      1.987      5.759
         TR   0.560E+25              198.726      4.968     25.476
         TOT                         278.2164     6.9554    31.2349   130.6867

   temp. (K)  partition function   enthalpy   heat capacity  entropy
                                   cal/mol     cal/K/mol   cal/K/mol   J/K/mol
  20.00  VIB   1.00                    0.000      0.000     -0.000
         ROT   3.34                   39.745      1.987      4.381
         INT   3.34                   39.745      1.987      4.381
         TR   0.198E+25               99.363      4.968     22.034
         TOT                         139.1082     6.9554    26.4154   110.5222

   temp. (K)  partition function   enthalpy   heat capacity  entropy
                                   cal/mol     cal/K/mol   cal/K/mol   J/K/mol
  10.00  VIB   1.00                    0.000      0.000     -0.000
         ROT   1.67                   19.873      1.987      3.004
         INT   1.67                   19.873      1.987      3.004
         TR   0.700E+24               49.681      4.968     18.592
         TOT                          69.5541     6.9554    21.5960    90.3576

       T/K    H(0)-H(T)+PV         H(T)/Eh          T*S/Eh         G(T)/Eh
   ------------------------------------------------------------------------
    298.15    0.330485E-02    0.872726E-02    0.214768E-01   -0.127495E-01
    120.00    0.133010E-02    0.675250E-02    0.743386E-02   -0.681359E-03
    100.00    0.110842E-02    0.653082E-02    0.599287E-02    0.537952E-03
     80.00    0.886732E-03    0.630914E-02    0.459650E-02    0.171264E-02
     60.00    0.665049E-03    0.608746E-02    0.325612E-02    0.283134E-02
     40.00    0.443366E-03    0.586577E-02    0.199104E-02    0.387474E-02
     20.00    0.221683E-03    0.564409E-02    0.841913E-03    0.480218E-02
     10.00    0.110842E-03    0.553325E-02    0.344154E-03    0.518909E-02 (used)
   ------------------------------------------------------------------------

         :::::::::::::::::::::::::::::::::::::::::::::::::::::
         ::                  THERMODYNAMIC                  ::
         :::::::::::::::::::::::::::::::::::::::::::::::::::::
         :: total free energy          -4.040500180349 Eh   ::
         ::.................................................::
         :: total energy               -4.045689274457 Eh   ::
         :: zero point energy           0.005422406559 Eh   ::
         :: G(RRHO) w/o ZPVE           -0.000233312451 Eh   ::
         :: G(RRHO) contrib.            0.005189094108 Eh   ::
         :::::::::::::::::::::::::::::::::::::::::::::::::::::

optimized geometry written to: xtbopt.xyz


           -------------------------------------------------
          | TOTAL ENERGY               -4.045689274457 Eh   |
          | TOTAL ENTHALPY             -4.040156026384 Eh   |
          | TOTAL FREE ENERGY          -4.040500180349 Eh   |
          | GRADIENT NORM               0.000218503698 Eh/α |
          | HOMO-LUMO GAP               3.071822706426 eV   |
           -------------------------------------------------

------------------------------------------------------------------------
 * finished run on 2020/05/13 at 16:22:17.759     
------------------------------------------------------------------------
 total:
 * wall-time:     0 d,  0 h,  0 min,  0.032 sec
 *  cpu-time:     0 d,  0 h,  0 min,  0.032 sec
 * ratio c/w:     0.991 speedup
 SCF:
 * wall-time:     0 d,  0 h,  0 min,  0.001 sec
 *  cpu-time:     0 d,  0 h,  0 min,  0.001 sec
 * ratio c/w:     1.000 speedup
 ANC optimizer:
 * wall-time:     0 d,  0 h,  0 min,  0.007 sec
 *  cpu-time:     0 d,  0 h,  0 min,  0.007 sec
 * ratio c/w:     0.995 speedup
 numerical hessian:
 * wall-time:     0 d,  0 h,  0 min,  0.009 sec
 *  cpu-time:     0 d,  0 h,  0 min,  0.009 sec
 * ratio c/w:     0.988 speedup

