2
 energy: -4.045689274457 gnorm: 0.000218503563 xtb: 6.2.2 (9d81278992624c895f80dd42a50cac0aa55982e2)
C         0.58037936759679   -0.00000303885926   -0.00000202590618
C        -0.58037936759679    0.00000303885926    0.00000202590618
