      -----------------------------------------------------------      
     |                   =====================                   |     
     |                           x T B                           |     
     |                   =====================                   |     
     |                         S. Grimme                         |     
     |          Mulliken Center for Theoretical Chemistry        |     
     |                    University of Bonn                     |     
      -----------------------------------------------------------      

   * xtb version 6.2.2 (9d81278992624c895f80dd42a50cac0aa55982e2) compiled by '@Darwin' on 04/03/2020

   xtb is free software: you can redistribute it and/or modify it under
   the terms of the GNU Lesser General Public License as published by
   the Free Software Foundation, either version 3 of the License, or
   (at your option) any later version.
   
   xtb is distributed in the hope that it will be useful,
   but WITHOUT ANY WARRANTY; without even the implied warranty of
   MERCHANTABILITY or FITNESS FOR A PARTICULAR PURPOSE.  See the
   GNU Lesser General Public License for more details.
   
   Cite this work as:
   * S. Grimme, C. Bannwarth, P. Shushkov, J. Chem. Theory Comput., 2017,
     13, 1989-2009. DOI: 10.1021/acs.jctc.7b00118
   * C. Bannwarth, S. Ehlert and S. Grimme., J. Chem. Theory Comput., 2019,
     15, 1652-1671. DOI: 10.1021/acs.jctc.8b01176
   * P. Pracht, E. Caldeweyher, S. Ehlert, S. Grimme, ChemRxiv, 2019, preprint.
     DOI: 10.26434/chemrxiv.8326202.v1
   
   for DFT-D4:
   * E. Caldeweyher, C. Bannwarth and S. Grimme, J. Chem. Phys., 2017,
     147, 034112. DOI: 10.1063/1.4993215
   * E. Caldeweyher, S. Ehlert, A. Hansen, H. Neugebauer, S. Spicher,
     C. Bannwarth and S. Grimme, J. Chem. Phys., 2019, 150, 154122.
     DOI: 10.1063/1.5090222
   
   for sTDA-xTB:
   * S. Grimme and C. Bannwarth, J. Chem. Phys., 2016, 145, 054103.
     DOI: 10.1063/1.4959605
   
   in the mass-spec context:
   * V. Asgeirsson, C. Bauer and S. Grimme, Chem. Sci., 2017, 8, 4879.
     DOI: 10.1039/c7sc00601b
   
   for metadynamics refer to:
   * S. Grimme, J. Chem. Theory Comput., 2019, 155, 2847-2862
     DOI: 10.1021/acs.jctc.9b00143
   
   with help from (in alphabetical order)
   C. Bannwarth, F. Bohle, G. Brandenburg, E. Caldeweyher, M. Checinski,
   S. Dohm, S. Ehlert, S. Ehrlich, F. März, H. Neugebauer, J. Pisarek,
   P. Pracht, P. Shushkov, and S. Spicher.
   
 * started run on 2020/05/12 at 11:45:01.297     

           -------------------------------------------------
          |                Calculation Setup                |
           -------------------------------------------------

          program call               : xtb --input H1C3N1_28_S_2.input H1C3N1_28_S_2.xyz --ohess --molden --namespace H1C3N1_28_S_2 output.out
          calculation namespace      : H1C3N1_28_S_2
          coordinate file            : H1C3N1_28_S_2.xyz
          number of atoms            :                     5
          number of electrons        :                    18
          charge                     :                     0
          spin                       :                   1.0
          first test random number   :      0.50744180765212

   ID    Z sym.   atoms
    1    6 C      1-3
    2    7 N      4
    3    1 H      5

           -------------------------------------------------
          |                 G F N 2 - x T B                 |
           -------------------------------------------------

        Reference                      10.1021/acs.jctc.8b01176
      * Hamiltonian:
        H0-scaling (s, p, d)           1.850000    2.230000    2.230000
        zeta-weighting                 0.500000
      * Dispersion:
        s8                             2.700000
        a1                             0.520000
        a2                             5.000000
        s9                             5.000000
      * Repulsion:
        kExp                           1.500000    1.000000
        rExp                           1.000000
      * Coulomb:
        alpha                          2.000000
        third order                    shell-resolved
        anisotropic                    true
        a3                             3.000000
        a5                             4.000000
        cn-shift                       1.200000
        cn-exp                         4.000000
        max-rad                        5.000000


          ...................................................
          :                      SETUP                      :
          :.................................................:
          :  # basis functions                  17          :
          :  # atomic orbitals                  17          :
          :  # shells                            9          :
          :  # electrons                        18          :
          :  max. iterations                   250          :
          :  Hamiltonian                  GFN2-xTB          :
          :  restarted?                      false          :
          :  GBSA solvation                  false          :
          :  PC potential                    false          :
          :  electronic temp.          300.0000000     K    :
          :  accuracy                    1.0000000          :
          :  -> integral cutoff          0.2500000E+02      :
          :  -> integral neglect         0.1000000E-07      :
          :  -> SCF convergence          0.1000000E-05 Eh   :
          :  -> wf. convergence          0.1000000E-03 e    :
          :  Broyden damping             0.4000000          :
          ...................................................

 iter      E             dE          RMSdq      gap      omega  full diag
   1     -9.4205191 -0.942052E+01  0.829E+00    1.93       0.0  T
   2     -9.4126752  0.784384E-02  0.682E+00    1.45       1.0  T
   3     -9.4399671 -0.272919E-01  0.530E+00    1.95       1.0  T
   4     -9.4599138 -0.199467E-01  0.331E+00    1.59       1.0  T
   5     -9.4977969 -0.378831E-01  0.237E+00    1.75       1.0  T
   6     -9.4995637 -0.176681E-02  0.216E+00    1.74       1.0  T
   7     -9.5098184 -0.102547E-01  0.167E-01    1.63       1.0  T
   8     -9.5098095  0.894869E-05  0.174E-01    1.63       1.0  T
   9     -9.5098411 -0.316425E-04  0.341E-02    1.63       1.3  T
  10     -9.5098430 -0.192366E-05  0.463E-02    1.63       1.0  T
  11     -9.5098413  0.173281E-05  0.552E-02    1.62       1.0  T
  12     -9.5098472 -0.591218E-05  0.140E-02    1.63       3.2  T
  13     -9.5098475 -0.276293E-06  0.115E-02    1.63       3.9  T
  14     -9.5098477 -0.210030E-06  0.476E-03    1.63       9.4  T
  15     -9.5098477 -0.355192E-07  0.215E-03    1.63      20.8  T
  16     -9.5098477 -0.907221E-08  0.353E-04    1.63     126.5  T
  17     -9.5098477 -0.252333E-09  0.191E-06    1.63   23461.0  T

   *** convergence criteria satisfied after 17 iterations ***

         #    Occupation            Energy/Eh            Energy/eV
      -------------------------------------------------------------
         1        2.0000           -0.7506675             -20.4267
       ...           ...                  ...                  ...
         4        2.0000           -0.5939955             -16.1634
         5        2.0000           -0.5139375             -13.9850
         6        2.0000           -0.5066962             -13.7879
         7        2.0000           -0.4813813             -13.0991
         8        1.8810           -0.4283168             -11.6551
         9        1.1190           -0.4245137             -11.5516
        10        1.0000           -0.3488916              -9.4938 (HOMO)
        11                         -0.2891512              -7.8682 (LUMO)
        12                         -0.2315462              -6.3007
        13                         -0.0377290              -1.0267
        14                         -0.0134718              -0.3666
        15                          0.0609674               1.6590
       ...                                ...                  ...
        17                          0.2509378               6.8284
      -------------------------------------------------------------
                  HL-Gap            0.0597404 Eh            1.6256 eV
             Fermi-level           -0.3727183 Eh          -10.1422 eV

 transition dipole moment (au) for excitation:           9          10
     X       Y       Z   
  -1.0895  -0.0749   0.0000  total (au/Debye):    1.092   2.776
 dE (eV)             :    2.058
 oscillator strength :  0.85029E-01

 SCC (total)                   0 d,  0 h,  0 min,  0.005 sec
 SCC setup                      ...        0 min,  0.000 sec (  1.741%)
 Dispersion                     ...        0 min,  0.000 sec (  0.353%)
 integral evaluation            ...        0 min,  0.001 sec ( 20.842%)
 zeroth order Hamiltonian       ...        0 min,  0.000 sec (  0.373%)
 iterations                     ...        0 min,  0.002 sec ( 34.817%)
 molecular gradient             ...        0 min,  0.001 sec ( 21.787%)
 printout                       ...        0 min,  0.001 sec ( 19.898%)

         :::::::::::::::::::::::::::::::::::::::::::::::::::::
         ::                     SUMMARY                     ::
         :::::::::::::::::::::::::::::::::::::::::::::::::::::
         :: total energy              -9.423603733471 Eh    ::
         :: gradient norm              0.082500185258 Eh/a0 ::
         :: HOMO-LUMO gap              1.625618848630 eV    ::
         ::.................................................::
         :: SCC energy                -9.509847746608 Eh    ::
         :: -> isotropic ES           -0.012404331773 Eh    ::
         :: -> anisotropic ES          0.007594764444 Eh    ::
         :: -> anisotropic XC          0.005795651511 Eh    ::
         :: -> dispersion             -0.002141619068 Eh    ::
         :: repulsion energy           0.086243985510 Eh    ::
         :: add. restraining           0.000000000000 Eh    ::
         :::::::::::::::::::::::::::::::::::::::::::::::::::::

      ----------------------------------------------------------- 
     |                   =====================                   |
     |                        A N C O P T                        |
     |                   =====================                   |
     |               Approximate Normal Coordinate               |
     |                Rational Function Optimizer                |
      ----------------------------------------------------------- 

          ...................................................
          :                      SETUP                      :
          :.................................................:
          :   optimization level            normal          :
          :   max. optcycles                   200          :
          :   ANC micro-cycles                  20          :
          :   degrees of freedom                 9          :
          :.................................................:
          :   RF solver                   davidson          :
          :   write xtbopt.log                true          :
          :   linear?                        false          :
          :   energy convergence         0.5000000E-05 Eh   :
          :   grad. convergence          0.1000000E-02 Eh/α :
          :   maximium RF displ.         1.0000000          :
          :   Hlow (freq-cutoff)         0.1000000E-01      :
          :   Hmax (freq-cutoff)         5.0000000          :
          :   S6 in model hess.         20.0000000          :
          ...................................................

generating ANC from model Hessian ...
Using Lindh-Hessian (1995)
 Shifting diagonal of input Hessian by    0.0000000000000000     
 Lowest  eigenvalues of input Hessian
   -0.000000   -0.000000   -0.000000    0.000000    0.000000    0.000000
    0.108613    0.156708    0.189771    0.622206    0.706743    1.047575
    1.100941    1.438400    1.560005
 Highest eigenvalues
    0.622206    0.706743    1.047575    1.100941    1.438400    1.560005


........................................................................
.............................. CYCLE    1 ..............................
........................................................................
   1     -9.5098477 -0.950985E+01  0.579E-06    1.63       0.0  T
   2     -9.5098477  0.529354E-12  0.112E-05    1.63    3999.1  T
   3     -9.5098477 -0.500933E-12  0.557E-06    1.63    8032.1  T
     SCC iter.                  ...        0 min,  0.001 sec
     gradient                   ...        0 min,  0.001 sec
 * total energy  :    -9.4236037 Eh     change        0.3223732E-10 Eh
   gradient norm :     0.0825002 Eh/α   predicted     0.0000000E+00 (-100.00%)
   displ. norm   :     0.3384987 α      lambda       -0.2155543E-01
   maximum displ.:     0.2741088 α      in ANC's #1, #3, #5, ...

........................................................................
.............................. CYCLE    2 ..............................
........................................................................
   1     -9.5267909 -0.952679E+01  0.277E+00    2.17       0.0  T
   2     -9.5047266  0.220643E-01  0.227E+00    2.35       1.0  T
   3     -9.4753952  0.293314E-01  0.421E+00    2.07       1.0  T
   4     -9.5259359 -0.505407E-01  0.136E+00    2.22       1.0  T
   5     -9.5283027 -0.236687E-02  0.101E+00    2.21       1.0  T
   6     -9.5309064 -0.260364E-02  0.327E-01    2.19       1.0  T
   7     -9.5310284 -0.122043E-03  0.111E-01    2.20       1.0  T
   8     -9.5310568 -0.283622E-04  0.287E-02    2.19       1.6  T
   9     -9.5310579 -0.108056E-05  0.111E-02    2.19       4.0  T
  10     -9.5310588 -0.934908E-06  0.103E-02    2.19       4.4  T
  11     -9.5310590 -0.218219E-06  0.901E-04    2.19      49.6  T
  12     -9.5310590 -0.214446E-08  0.119E-04    2.19     375.4  T
     SCC iter.                  ...        0 min,  0.001 sec
     gradient                   ...        0 min,  0.001 sec
 * total energy  :    -9.4394585 Eh     change       -0.1585476E-01 Eh
   gradient norm :     0.0678211 Eh/α   predicted    -0.1201264E-01 ( -24.23%)
   displ. norm   :     0.3619467 α      lambda       -0.1822090E-01
   maximum displ.:     0.2868769 α      in ANC's #3, #1, #5, ...

........................................................................
.............................. CYCLE    3 ..............................
........................................................................
   1     -9.5541952 -0.955420E+01  0.389E+00    2.12       0.0  T
   2     -9.4924348  0.617604E-01  0.383E+00    2.51       1.0  T
   3     -9.5298517 -0.374169E-01  0.321E+00    1.87       1.0  T
   4     -9.5564292 -0.265775E-01  0.205E+00    2.15       1.0  T
   5     -9.5589799 -0.255072E-02  0.130E+00    2.19       1.0  T
   6     -9.5582767  0.703181E-03  0.142E+00    2.18       1.0  T
   7     -9.5615753 -0.329853E-02  0.622E-01    2.29       1.0  T
   8     -9.5624619 -0.886599E-03  0.143E-01    2.26       1.0  T
   9     -9.5624953 -0.334112E-04  0.381E-02    2.27       1.2  T
  10     -9.5624884  0.686526E-05  0.903E-02    2.27       1.0  T
  11     -9.5625079 -0.194290E-04  0.112E-03    2.27      40.0  T
  12     -9.5625078  0.717032E-08  0.182E-03    2.27      24.6  T
  13     -9.5625078  0.858503E-08  0.267E-03    2.27      16.7  T
  14     -9.5625079 -0.163844E-07  0.101E-04    2.27     443.5  T
  15     -9.5625079 -0.608580E-11  0.902E-05    2.27     495.9  T
     SCC iter.                  ...        0 min,  0.001 sec
     gradient                   ...        0 min,  0.001 sec
 * total energy  :    -9.4532198 Eh     change       -0.1376132E-01 Eh
   gradient norm :     0.0569339 Eh/α   predicted    -0.1030397E-01 ( -25.12%)
   displ. norm   :     0.3812395 α      lambda       -0.1491031E-01
   maximum displ.:     0.2593740 α      in ANC's #3, #5, #4, ...

........................................................................
.............................. CYCLE    4 ..............................
........................................................................
   1     -9.5936830 -0.959368E+01  0.257E+00    1.12       0.0  T
   2     -9.5936586  0.243959E-04  0.148E+00    0.86       1.0  T
   3     -9.5949280 -0.126940E-02  0.122E+00    1.21       1.0  T
   4     -9.5996061 -0.467807E-02  0.105E-01    1.03       1.0  T
   5     -9.5996210 -0.149354E-04  0.527E-02    1.06       1.0  T
   6     -9.5996210  0.452828E-08  0.158E-02    1.05       2.8  T
   7     -9.5996217 -0.708377E-06  0.122E-02    1.05       3.7  T
   8     -9.5996227 -0.100635E-05  0.350E-03    1.05      12.8  T
   9     -9.5996227 -0.190925E-07  0.668E-04    1.05      66.9  T
  10     -9.5996227 -0.255007E-09  0.497E-05    1.05     900.1  T
     SCC iter.                  ...        0 min,  0.001 sec
     gradient                   ...        0 min,  0.001 sec
 * total energy  :    -9.4574771 Eh     change       -0.4257238E-02 Eh
   gradient norm :     0.0779833 Eh/α   predicted    -0.8538708E-02 ( 100.57%)
   displ. norm   :     0.1320777 α      lambda       -0.7343349E-02
   maximum displ.:     0.0896650 α      in ANC's #3, #1, #7, ...

........................................................................
.............................. CYCLE    5 ..............................
........................................................................
   1     -9.5831526 -0.958315E+01  0.711E-01    1.11       0.0  T
   2     -9.5828779  0.274737E-03  0.576E-01    1.26       1.0  T
   3     -9.5840271 -0.114915E-02  0.284E-01    1.14       1.0  T
   4     -9.5841587 -0.131612E-03  0.328E-02    1.16       1.4  T
   5     -9.5841594 -0.748507E-06  0.160E-02    1.16       2.8  T
   6     -9.5841585  0.892746E-06  0.106E-02    1.16       4.2  T
   7     -9.5841595 -0.970933E-06  0.389E-03    1.16      11.5  T
   8     -9.5841596 -0.935387E-07  0.806E-04    1.16      55.5  T
   9     -9.5841596 -0.620270E-09  0.288E-04    1.16     155.0  T
     SCC iter.                  ...        0 min,  0.001 sec
     gradient                   ...        0 min,  0.001 sec
 * total energy  :    -9.4611560 Eh     change       -0.3678932E-02 Eh
   gradient norm :     0.0297700 Eh/α   predicted    -0.3735727E-02 (   1.54%)
   displ. norm   :     0.0447502 α      lambda       -0.1143856E-02
   maximum displ.:     0.0286358 α      in ANC's #3, #5, #7, ...

........................................................................
.............................. CYCLE    6 ..............................
........................................................................
   1     -9.5846796 -0.958468E+01  0.268E-01    1.06       0.0  T
   2     -9.5846973 -0.177649E-04  0.149E-01    1.04       1.0  T
   3     -9.5846981 -0.824250E-06  0.390E-02    1.05       1.1  T
   4     -9.5846995 -0.132780E-05  0.837E-03    1.04       5.3  T
   5     -9.5846994  0.982091E-07  0.876E-03    1.05       5.1  T
   6     -9.5846996 -0.178750E-06  0.349E-03    1.04      12.8  T
   7     -9.5846997 -0.112502E-06  0.874E-04    1.04      51.2  T
   8     -9.5846997 -0.294443E-08  0.162E-04    1.04     276.3  T
     SCC iter.                  ...        0 min,  0.001 sec
     gradient                   ...        0 min,  0.001 sec
 * total energy  :    -9.4621698 Eh     change       -0.1013840E-02 Eh
   gradient norm :     0.0234944 Eh/α   predicted    -0.5730725E-03 ( -43.48%)
   displ. norm   :     0.2001914 α      lambda       -0.3635376E-02
   maximum displ.:     0.1428918 α      in ANC's #3, #7, #1, ...

........................................................................
.............................. CYCLE    7 ..............................
........................................................................
   1     -9.5832171 -0.958322E+01  0.106E+00    0.86       0.0  T
   2     -9.5834133 -0.196172E-03  0.576E-01    0.82       1.0  T
   3     -9.5833471  0.662144E-04  0.178E-01    0.82       1.0  T
   4     -9.5834050 -0.579399E-04  0.984E-02    0.85       1.0  T
   5     -9.5834564 -0.513193E-04  0.251E-02    0.83       1.8  T
   6     -9.5834560  0.394123E-06  0.744E-03    0.83       6.0  T
   7     -9.5834562 -0.271276E-06  0.504E-03    0.83       8.9  T
   8     -9.5834564 -0.207271E-06  0.609E-04    0.83      73.4  T
   9     -9.5834564 -0.110203E-09  0.267E-04    0.83     167.7  T
     SCC iter.                  ...        0 min,  0.001 sec
     gradient                   ...        0 min,  0.001 sec
 * total energy  :    -9.4638320 Eh     change       -0.1662216E-02 Eh
   gradient norm :     0.0109447 Eh/α   predicted    -0.1890532E-02 (  13.74%)
   displ. norm   :     0.0268774 α      lambda       -0.1584550E-03
   maximum displ.:     0.0165897 α      in ANC's #7, #3, #1, ...

........................................................................
.............................. CYCLE    8 ..............................
........................................................................
   1     -9.5850500 -0.958505E+01  0.163E-01    0.84       0.0  T
   2     -9.5850475  0.250549E-05  0.110E-01    0.82       1.0  T
   3     -9.5850717 -0.242107E-04  0.712E-02    0.84       1.0  T
   4     -9.5850871 -0.153755E-04  0.176E-02    0.83       2.5  T
   5     -9.5850881 -0.938183E-06  0.360E-03    0.83      12.4  T
   6     -9.5850879  0.146615E-06  0.399E-03    0.83      11.2  T
   7     -9.5850881 -0.157806E-06  0.407E-04    0.83     109.8  T
   8     -9.5850881 -0.388381E-09  0.112E-04    0.83     399.5  T
     SCC iter.                  ...        0 min,  0.001 sec
     gradient                   ...        0 min,  0.001 sec
 * total energy  :    -9.4639203 Eh     change       -0.8824366E-04 Eh
   gradient norm :     0.0039586 Eh/α   predicted    -0.7928444E-04 ( -10.15%)
   displ. norm   :     0.0102002 α      lambda       -0.3272642E-04
   maximum displ.:     0.0072698 α      in ANC's #3, #4, #5, ...

........................................................................
.............................. CYCLE    9 ..............................
........................................................................
   1     -9.5853102 -0.958531E+01  0.717E-02    0.85       0.0  T
   2     -9.5853102 -0.101279E-07  0.543E-02    0.85       1.0  T
   3     -9.5853159 -0.569406E-05  0.305E-02    0.86       1.5  T
   4     -9.5853177 -0.183437E-05  0.973E-03    0.85       4.6  T
   5     -9.5853181 -0.384385E-06  0.173E-03    0.85      25.9  T
   6     -9.5853181  0.265318E-07  0.170E-03    0.85      26.3  T
   7     -9.5853181 -0.285597E-07  0.191E-04    0.85     234.1  T
   8     -9.5853181 -0.901554E-10  0.549E-05    0.85     814.9  T
     SCC iter.                  ...        0 min,  0.001 sec
     gradient                   ...        0 min,  0.001 sec
 * total energy  :    -9.4639450 Eh     change       -0.2468832E-04 Eh
   gradient norm :     0.0022361 Eh/α   predicted    -0.1636664E-04 ( -33.71%)
   displ. norm   :     0.0141585 α      lambda       -0.2546032E-04
   maximum displ.:     0.0100552 α      in ANC's #3, #4, #5, ...

........................................................................
.............................. CYCLE   10 ..............................
........................................................................
   1     -9.5853611 -0.958536E+01  0.981E-02    0.88       0.0  T
   2     -9.5853613 -0.210590E-06  0.709E-02    0.87       1.0  T
   3     -9.5853664 -0.510249E-05  0.434E-02    0.88       1.0  T
   4     -9.5853716 -0.518765E-05  0.116E-02    0.88       3.9  T
   5     -9.5853722 -0.560642E-06  0.257E-03    0.88      17.4  T
   6     -9.5853721  0.879959E-08  0.111E-03    0.88      40.1  T
   7     -9.5853722 -0.103502E-07  0.431E-04    0.88     103.8  T
   8     -9.5853722 -0.121137E-08  0.624E-05    0.88     716.2  T
     SCC iter.                  ...        0 min,  0.001 sec
     gradient                   ...        0 min,  0.001 sec
 * total energy  :    -9.4639595 Eh     change       -0.1451855E-04 Eh
   gradient norm :     0.0013992 Eh/α   predicted    -0.1273204E-04 ( -12.31%)
   displ. norm   :     0.0047910 α      lambda       -0.2338462E-05
   maximum displ.:     0.0030067 α      in ANC's #4, #1, #3, ...

........................................................................
.............................. CYCLE   11 ..............................
........................................................................
   1     -9.5854674 -0.958547E+01  0.324E-02    0.89       0.0  T
   2     -9.5854674  0.173046E-07  0.228E-02    0.89       2.0  T
   3     -9.5854676 -0.264442E-06  0.148E-02    0.89       3.0  T
   4     -9.5854684 -0.707663E-06  0.336E-03    0.89      13.3  T
   5     -9.5854684 -0.430570E-07  0.868E-04    0.89      51.5  T
   6     -9.5854684  0.778757E-08  0.908E-04    0.89      49.3  T
     SCC iter.                  ...        0 min,  0.000 sec
     gradient                   ...        0 min,  0.001 sec
 * total energy  :    -9.4639614 Eh     change       -0.1869586E-05 Eh
   gradient norm :     0.0005679 Eh/α   predicted    -0.1168165E-05 ( -37.52%)
   displ. norm   :     0.0014786 α      lambda       -0.3575398E-06
   maximum displ.:     0.0008615 α      in ANC's #1, #9, #3, ...

   *** GEOMETRY OPTIMIZATION CONVERGED AFTER 11 ITERATIONS ***

------------------------------------------------------------------------
 total energy gain   :        -0.0403576 Eh      -25.3248 kcal/mol
 total RMSD          :         0.3899427 a0        0.2063 Å
 total power (kW/mol):        -9.6326324 (step)-3174.6164 (real)
------------------------------------------------------------------------

 ANCopt (total)                0 d,  0 h,  0 min,  0.033 sec
 optimizer setup                ...        0 min,  0.000 sec (  0.216%)
 model hessian                  ...        0 min,  0.000 sec (  0.276%)
 ANC generation                 ...        0 min,  0.000 sec (  0.174%)
 coordinate transformation      ...        0 min,  0.000 sec (  0.073%)
 single point calculation       ...        0 min,  0.032 sec ( 96.523%)
 optimization log               ...        0 min,  0.000 sec (  0.886%)
 hessian update                 ...        0 min,  0.000 sec (  0.073%)
 rational function              ...        0 min,  0.000 sec (  0.760%)

================
 final structure:
================
5
 xtb: 6.2.2 (9d81278992624c895f80dd42a50cac0aa55982e2)
C         1.11241398461212   -0.32591985821839   -0.13236126214816
C         0.07464883374393   -1.08618186886204    0.30355713586835
C        -1.05737380586568   -0.47503252987330   -0.13233242740948
N        -0.03757679554403    0.54673109076325   -0.34145791196845
H        -0.09211121694634    1.34040316619048    0.30259446565774

 Bond Distances (Angstroems)
 ---------------------------
C1-C2=1.3583         C1-N4=1.4587         C2-C1=1.3583         C2-C3=1.3583         C2-N4=1.7593         C3-C2=1.3583         
C3-N4=1.4587         N4-C1=1.4587         N4-C2=1.7593         N4-C3=1.4587         N4-H5=1.0236         H5-N4=1.0236         
 C  C  Rav=1.3583 sigma=0.0000  Rmin=1.3583  Rmax=1.3583     2
 N  H  Rav=1.0236 sigma=0.0000  Rmin=1.0236  Rmax=1.0236     1
 N  C  Rav=1.5589 sigma=0.1417  Rmin=1.4587  Rmax=1.7593     3

 selected bond angles (degree)
 --------------------
N4-C1-C2= 77.20                C3-C2-C1=106.37                N4-C2-C1= 53.95                N4-C2-C3= 53.95                
N4-C3-C2= 77.20                C2-N4-C1= 48.84                C3-N4-C1= 96.41                C3-N4-C2= 48.84                
H5-N4-C1=114.56                H5-N4-C2=119.50                H5-N4-C3=114.56                

 selected dihedral angles (degree)
 ---------------------------------
C3-C2-C1-N4= 13.49            N4-C3-C2-C1=346.51            C3-N4-C1-C2=347.89            H5-N4-C1-C2=108.64            
C1-N4-C2-C3=196.07            C3-N4-C2-C1=163.93            H5-N4-C2-C1=261.96            H5-N4-C2-C3= 98.04            
C1-N4-C3-C2= 12.11            H5-N4-C3-C2=251.36            
           -------------------------------------------------
          |                Final Singlepoint                |
           -------------------------------------------------

          ...................................................
          :                      SETUP                      :
          :.................................................:
          :  # basis functions                  17          :
          :  # atomic orbitals                  17          :
          :  # shells                            9          :
          :  # electrons                        18          :
          :  max. iterations                   250          :
          :  Hamiltonian                  GFN2-xTB          :
          :  restarted?                      false          :
          :  GBSA solvation                  false          :
          :  PC potential                    false          :
          :  electronic temp.          300.0000000     K    :
          :  accuracy                    1.0000000          :
          :  -> integral cutoff          0.2500000E+02      :
          :  -> integral neglect         0.1000000E-07      :
          :  -> SCF convergence          0.1000000E-05 Eh   :
          :  -> wf. convergence          0.1000000E-03 e    :
          :  Broyden damping             0.4000000          :
          ...................................................

 iter      E             dE          RMSdq      gap      omega  full diag
   1     -9.5854684 -0.958547E+01  0.368E-04    0.89       0.0  T
   2     -9.5854684  0.279629E-09  0.208E-04    0.89     215.4  T
   3     -9.5854684  0.193300E-08  0.540E-04    0.89      82.8  T

   *** convergence criteria satisfied after 3 iterations ***

         #    Occupation            Energy/Eh            Energy/eV
      -------------------------------------------------------------
         1        2.0000           -0.7277522             -19.8031
       ...           ...                  ...                  ...
         4        2.0000           -0.5700227             -15.5111
         5        2.0000           -0.5355969             -14.5743
         6        2.0000           -0.5174082             -14.0794
         7        2.0000           -0.4619162             -12.5694
         8        2.0000           -0.4249581             -11.5637
         9        1.0000           -0.3912133             -10.6455
        10        1.0000           -0.3489502              -9.4954 (HOMO)
        11                         -0.3161710              -8.6034 (LUMO)
        12                         -0.2059863              -5.6052
        13                         -0.0529548              -1.4410
        14                          0.0334284               0.9096
        15                          0.1121533               3.0518
       ...                                ...                  ...
        17                          0.5130137              13.9598
      -------------------------------------------------------------
                  HL-Gap            0.0327792 Eh            0.8920 eV
             Fermi-level           -0.3703231 Eh          -10.0770 eV

 transition dipole moment (au) for excitation:           9          10
     X       Y       Z   
  -0.0068   0.0991   0.2300  total (au/Debye):    0.250   0.637
 dE (eV)             :    1.150
 oscillator strength :  0.25002E-02

 SCC (total)                   0 d,  0 h,  0 min,  0.003 sec
 SCC setup                      ...        0 min,  0.000 sec (  2.004%)
 Dispersion                     ...        0 min,  0.000 sec (  0.274%)
 integral evaluation            ...        0 min,  0.001 sec ( 29.194%)
 zeroth order Hamiltonian       ...        0 min,  0.000 sec (  0.380%)
 iterations                     ...        0 min,  0.000 sec ( 14.330%)
 molecular gradient             ...        0 min,  0.001 sec ( 30.375%)
 printout                       ...        0 min,  0.001 sec ( 23.295%)

         :::::::::::::::::::::::::::::::::::::::::::::::::::::
         ::                     SUMMARY                     ::
         :::::::::::::::::::::::::::::::::::::::::::::::::::::
         :: total energy              -9.463961377389 Eh    ::
         :: gradient norm              0.000568917896 Eh/a0 ::
         :: HOMO-LUMO gap              0.891967630153 eV    ::
         ::.................................................::
         :: SCC energy                -9.585468395196 Eh    ::
         :: -> isotropic ES           -0.004113750311 Eh    ::
         :: -> anisotropic ES          0.001493377434 Eh    ::
         :: -> anisotropic XC          0.008520671437 Eh    ::
         :: -> dispersion             -0.002140355039 Eh    ::
         :: repulsion energy           0.121506991482 Eh    ::
         :: add. restraining           0.000000000000 Eh    ::
         :::::::::::::::::::::::::::::::::::::::::::::::::::::

           ------------------------------------------------- 
          |                Numerical Hessian                |
           ------------------------------------------------- 
step length          :   0.00500
SCC accuracy         :   0.30000
Hessian scale factor :   1.00000
frozen atoms in %    :   0.00000    0
RMS gradient         :   0.00057
estimated CPU  time      0.00 min
estimated wall time      0.00 min

writing file <hessian>.

 projected vibrational frequencies (cm-1)
eigval :       -0.00    -0.00    -0.00    -0.00     0.00     0.00
eigval :      454.91   607.16   624.14   900.74  1025.18  1108.90
eigval :     1230.97  1427.23  3228.57
           -------------------------------------------------
          |                Property Printout                |
           -------------------------------------------------

    * Orbital Energies and Occupations

         #    Occupation            Energy/Eh            Energy/eV
      -------------------------------------------------------------
         1        2.0000           -0.7277523             -19.8031
         2        2.0000           -0.6358852             -17.3033
         3        2.0000           -0.6358215             -17.3016
         4        2.0000           -0.5700227             -15.5111
         5        2.0000           -0.5355970             -14.5743
         6        2.0000           -0.5174082             -14.0794
         7        2.0000           -0.4619163             -12.5694
         8        2.0000           -0.4249581             -11.5637
         9        1.0000           -0.3912135             -10.6455
        10        1.0000           -0.3489503              -9.4954 (HOMO)
        11                         -0.3161710              -8.6034 (LUMO)
        12                         -0.2059863              -5.6052
        13                         -0.0529549              -1.4410
        14                          0.0334283               0.9096
        15                          0.1121532               3.0518
        16                          0.3751231              10.2076
        17                          0.5130137              13.9598
      -------------------------------------------------------------
                  HL-Gap            0.0327794 Eh            0.8920 eV
             Fermi-level           -0.3703232 Eh          -10.0770 eV

     #   Z        covCN         q      C6AA      α(0)
     1   6 C      2.061    -0.071    32.897     9.265
     2   6 C      2.732     0.042    27.029     8.512
     3   6 C      2.061    -0.071    32.897     9.265
     4   7 N      3.444    -0.071    22.609     7.062
     5   1 H      0.859     0.172     1.263     1.761

 Mol. C6AA /au·bohr⁶  :        507.529837
 Mol. C8AA /au·bohr⁸  :      13408.147951
 Mol. α(0) /au        :         35.863835


Wiberg/Mayer (AO) data.
largest (>0.10) Wiberg bond orders for each atom
          total WBO             WBO to atom ...
     1  C   2.478        C    2 1.407    N    4 0.914    C    3 0.155
     2  C   3.376        C    3 1.407    C    1 1.407    N    4 0.531
     3  C   2.478        C    2 1.407    N    4 0.914    C    1 0.155
     4  N   3.294        H    5 0.935    C    1 0.914    C    3 0.914    C    2 0.531
     5  H   0.971        N    4 0.935

MOs/occ written to file <molden.input>


molecular dipole:
                 x           y           z       tot (Debye)
 q only:       -0.026       0.383       0.204
   full:       -0.040       0.582       0.332       1.706
molecular quadrupole (traceless):
                xx          xy          yy          xz          yz          zz
 q only:       -1.171      -0.178       1.401      -0.023       0.328      -0.230
  q+dip:       -2.635      -0.348       2.411      -0.084       1.223       0.224
   full:       -3.569      -0.456       3.035      -0.096       1.391       0.534

           -------------------------------------------------
Molecule has the following symmetry elements: (sigma) 
It seems to be the Cs point group
          |                Geometry Summary                 |
           -------------------------------------------------

      molecular mass/u    :       51.0468517
   center of mass at/Å    :        0.0183832      -0.2675373      -0.0785730
  moments of inertia/u·Å² :        0.2340071E+02   0.2949827E+02   0.5071579E+02
rotational constants/cm⁻¹ :        0.7203898E+00   0.5714787E+00   0.3323942E+00

 * 3 selected distances

     #   Z        #   Z                                     value/Å
     1   6 C      2   6 C                                 1.3583003 (max)
     2   6 C      3   6 C                                 1.3582998
     4   7 N      5   1 H                                 1.0235687 (min)

 * 2 distinct bonds (by element types)

   Z      Z             #   av. dist./Å        max./Å        min./Å
   6 C    6 C           2     1.3583001     1.3583003     1.3582998
   1 H    7 N           1     1.0235687     1.0235687     1.0235687

           -------------------------------------------------
          |               Frequency Printout                |
           -------------------------------------------------
 projected vibrational frequencies (cm-1)
eigval :       -0.00    -0.00    -0.00    -0.00     0.00     0.00
eigval :      454.91   607.16   624.14   900.74  1025.18  1108.90
eigval :     1230.97  1427.23  3228.57
 reduced masses (amu)
   1: 12.01   2: 12.12   3: 11.91   4: 11.76   5: 12.21   6: 12.32   7: 12.35   8: 10.90
   9: 12.62  10: 10.54  11:  6.12  12:  2.35  13: 12.04  14: 12.07  15:  1.83
 IR intensities (amu)
   1:  0.07   2:  0.05   3:  0.04   4:  0.07   5:  0.08   6:  0.12   7:  0.90   8:  0.37
   9:  0.29  10:  1.12  11:  0.42  12:  0.26  13:  1.51  14:  0.24  15:  0.06
 Raman intensities (amu)
   1:  0.00   2:  0.00   3:  0.00   4:  0.00   5:  0.00   6:  0.00   7:  0.00   8:  0.00
   9:  0.00  10:  0.00  11:  0.00  12:  0.00  13:  0.00  14:  0.00  15:  0.00
 output can be read by thermo (or use thermo option).
 writing <g98.out> molden fake output.
 recommended (thermochemical) frequency scaling factor: 1.0
           -------------------------------------------------
          |             Thermodynamic Functions             |
           -------------------------------------------------

cs  symmetry found (for desy threshold:  0.10E+00) used in thermo

          ...................................................
          :                      SETUP                      :
          :.................................................:
          :  # frequencies                           9      :
          :  # imaginary freq.                       0      :
          :  linear?                             false      :
          :  only rotor calc.                    false      :
          :  symmetry                               cs      :
          :  rotational number                       1      :
          :  scaling factor                  1.0000000      :
          :  rotor cutoff                   50.0000000 cm⁻¹ :
          :  imag. cutoff                  -20.0000000 cm⁻¹ :
          :.................................................:

    mode    ω/cm⁻¹     T·S(HO)/kcal·mol⁻¹    T·S(FR)/kcal·mol⁻¹   T·S(vib)
   ------------------------------------------------------------------------
   ------------------------------------------------------------------------

   temp. (K)  partition function   enthalpy   heat capacity  entropy
                                   cal/mol     cal/K/mol   cal/K/mol   J/K/mol
 298.15  VIB   1.29                  436.543      4.752      1.965
         ROT  0.143E+05              888.752      2.981     21.994
         INT  0.184E+05             1325.295      7.733     23.959
         TR   0.353E+27             1481.254      4.968     37.697
         TOT                        2806.5490    12.7008    61.6556   257.9669

   temp. (K)  partition function   enthalpy   heat capacity  entropy
                                   cal/mol     cal/K/mol   cal/K/mol   J/K/mol
 120.00  VIB   1.01                    7.863      0.397      0.077
         ROT  0.365E+04              357.707      2.981     19.281
         INT  0.367E+04              365.570      3.378     19.358
         TR   0.901E+26              596.178      4.968     33.177
         TOT                         961.7477     8.3464    52.5350   219.8064

   temp. (K)  partition function   enthalpy   heat capacity  entropy
                                   cal/mol     cal/K/mol   cal/K/mol   J/K/mol
 100.00  VIB   1.00                    2.383      0.168      0.027
         ROT  0.278E+04              298.089      2.981     18.738
         INT  0.278E+04              300.472      3.149     18.765
         TR   0.685E+26              496.815      4.968     32.272
         TOT                         797.2874     8.1173    51.0368   213.5379

   temp. (K)  partition function   enthalpy   heat capacity  entropy
                                   cal/mol     cal/K/mol   cal/K/mol   J/K/mol
  80.00  VIB   1.00                    0.420      0.045      0.006
         ROT  0.199E+04              238.471      2.981     18.072
         INT  0.199E+04              238.891      3.026     18.078
         TR   0.490E+26              397.452      4.968     31.164
         TOT                         636.3427     7.9940    49.2421   206.0289

   temp. (K)  partition function   enthalpy   heat capacity  entropy
                                   cal/mol     cal/K/mol   cal/K/mol   J/K/mol
  60.00  VIB   1.00                    0.025      0.005      0.000
         ROT  0.129E+04              178.853      2.981     17.215
         INT  0.129E+04              178.879      2.986     17.215
         TR   0.319E+26              298.089      4.968     29.735
         TOT                         476.9676     7.9537    46.9505   196.4410

   temp. (K)  partition function   enthalpy   heat capacity  entropy
                                   cal/mol     cal/K/mol   cal/K/mol   J/K/mol
  40.00  VIB   1.00                    0.000      0.000     -0.000
         ROT   702.                  119.236      2.981     16.006
         INT   702.                  119.236      2.981     16.006
         TR   0.173E+26              198.726      4.968     27.722
         TOT                         317.9617     7.9491    43.7279   182.9575

   temp. (K)  partition function   enthalpy   heat capacity  entropy
                                   cal/mol     cal/K/mol   cal/K/mol   J/K/mol
  20.00  VIB   1.00                    0.000      0.000     -0.000
         ROT   248.                   59.618      2.981     13.940
         INT   248.                   59.618      2.981     13.940
         TR   0.613E+25               99.363      4.968     24.280
         TOT                         158.9808     7.9490    38.2195   159.9105

   temp. (K)  partition function   enthalpy   heat capacity  entropy
                                   cal/mol     cal/K/mol   cal/K/mol   J/K/mol
  10.00  VIB   1.00                    0.000      0.000     -0.001
         ROT   87.8                   29.809      2.981     11.874
         INT   87.8                   29.809      2.981     11.873
         TR   0.217E+25               49.681      4.968     20.838
         TOT                          79.4904     7.9490    32.7112   136.8636

       T/K    H(0)-H(T)+PV         H(T)/Eh          T*S/Eh         G(T)/Eh
   ------------------------------------------------------------------------
    298.15    0.447252E-02    0.286388E-01    0.292946E-01   -0.655703E-03
    120.00    0.153264E-02    0.256990E-01    0.100464E-01    0.156526E-01
    100.00    0.127056E-02    0.254369E-01    0.813323E-02    0.173037E-01
     80.00    0.101408E-02    0.251804E-01    0.627778E-02    0.189026E-01
     60.00    0.760096E-03    0.249264E-01    0.448923E-02    0.204372E-01
     40.00    0.506704E-03    0.246730E-01    0.278739E-02    0.218856E-01
     20.00    0.253352E-03    0.244197E-01    0.121813E-02    0.232015E-01
     10.00    0.126676E-03    0.242930E-01    0.521286E-03    0.237717E-01 (used)
   ------------------------------------------------------------------------

         :::::::::::::::::::::::::::::::::::::::::::::::::::::
         ::                  THERMODYNAMIC                  ::
         :::::::::::::::::::::::::::::::::::::::::::::::::::::
         :: total free energy          -9.440189663070 Eh   ::
         ::.................................................::
         :: total energy               -9.463961379485 Eh   ::
         :: zero point energy           0.024166326345 Eh   ::
         :: G(RRHO) w/o ZPVE           -0.000394609930 Eh   ::
         :: G(RRHO) contrib.            0.023771716415 Eh   ::
         :::::::::::::::::::::::::::::::::::::::::::::::::::::

optimized geometry written to: xtbopt.xyz


           -------------------------------------------------
          | TOTAL ENERGY               -9.463961379485 Eh   |
          | TOTAL ENTHALPY             -9.439668377124 Eh   |
          | TOTAL FREE ENERGY          -9.440189663070 Eh   |
          | GRADIENT NORM               0.000568759263 Eh/α |
          | HOMO-LUMO GAP               0.891972030362 eV   |
           -------------------------------------------------

------------------------------------------------------------------------
 * finished run on 2020/05/12 at 11:45:01.436     
------------------------------------------------------------------------
 total:
 * wall-time:     0 d,  0 h,  0 min,  0.138 sec
 *  cpu-time:     0 d,  0 h,  0 min,  0.138 sec
 * ratio c/w:     0.999 speedup
 SCF:
 * wall-time:     0 d,  0 h,  0 min,  0.005 sec
 *  cpu-time:     0 d,  0 h,  0 min,  0.005 sec
 * ratio c/w:     0.997 speedup
 ANC optimizer:
 * wall-time:     0 d,  0 h,  0 min,  0.038 sec
 *  cpu-time:     0 d,  0 h,  0 min,  0.038 sec
 * ratio c/w:     0.999 speedup
 numerical hessian:
 * wall-time:     0 d,  0 h,  0 min,  0.080 sec
 *  cpu-time:     0 d,  0 h,  0 min,  0.080 sec
 * ratio c/w:     0.998 speedup

