[Molden Format]
[Title]
[Atoms] AU
O      1     8  0.12923657676493E+00  0.15279870129114E+01 -0.31179344399918E-05
C      2     6  0.11541379639569E+01 -0.68916792871904E+00 -0.28258996961740E-05
O      3     8 -0.12833745407218E+01 -0.83881908419239E+00  0.59438341361053E-05
[GTO]
           1 0
 s           4   1.0000000000000000     
   69.137961906196551      -0.20478756370077797     
   11.906129132707308      -0.24997023136827334     
  0.95670827744340703       0.40025880240639616     
  0.36462520496073686       0.15952206667693555     
 p           4   1.0000000000000000     
   8.2124193257781641        1.1321556799186829     
   2.1293576997098116        1.0476840782254817     
  0.75066448202360914       0.54956508217158984     
  0.29885246543283073        8.2908486592766617E-002

           2 0
 s           4   1.0000000000000000     
   51.049363095579913      -0.16312063210127389     
   8.7911227406887544      -0.19911024581000730     
  0.70640422258929825       0.31882047753655751     
  0.26922813413411617       0.12706504184240380     
 p           4   1.0000000000000000     
   5.8263656140800002       0.73716451545209605     
   1.5106896018720002       0.68216371614850257     
  0.53256483288000001       0.35783053929253711     
  0.21202323690600003        5.3983030275847881E-002

           3 0
 s           4   1.0000000000000000     
   69.137961906196551      -0.20478756370077797     
   11.906129132707308      -0.24997023136827334     
  0.95670827744340703       0.40025880240639616     
  0.36462520496073686       0.15952206667693555     
 p           4   1.0000000000000000     
   8.2124193257781641        1.1321556799186829     
   2.1293576997098116        1.0476840782254817     
  0.75066448202360914       0.54956508217158984     
  0.29885246543283073        8.2908486592766617E-002

[MO]
Sym=     1a
Ene=  -0.84829959087982520     
Spin= Alpha
Occup=     2.00000000
           1  0.40153820114562166     
           2  -1.0837823831523721E-002
           3 -0.23713496294653458     
           4   4.5642564159702861E-007
           5  0.28122524865836901     
           6 -0.15430502447112307     
           7   9.2046951111121864E-002
           8   3.7621057026970954E-007
           9  0.40193115762391091     
          10  0.20365712548401904     
          11  0.12203522233586143     
          12  -9.3466619358487191E-007
Sym=     2a
Ene=  -0.76943712274189024     
Spin= Alpha
Occup=     2.00000000
           1  0.61752191563603187     
           2  0.14590802365926223     
           3   8.4176916440145119E-002
           4  -6.3340683737022939E-007
           5   1.6872139603576787E-005
           6  0.12902535372013271     
           7  0.21621408329056985     
           8  -8.1488765577302612E-007
           9 -0.61733624042496027     
          10   5.0286627536248116E-003
          11  0.16876259915284078     
          12  -2.8454628046213053E-007
Sym=     3a
Ene=  -0.70869752591658008     
Spin= Alpha
Occup=     2.00000000
           1 -0.34852427441301032     
           2  0.40825150094587154     
           3 -0.23930608946668325     
           4  -1.0099104112369187E-006
           5  0.40604452074345304     
           6   3.4693602913366157E-002
           7  -2.0793347075314619E-002
           8  -8.1620763713707209E-008
           9 -0.34881223525287020     
          10  0.40480439372060845     
          11 -0.24585630911760034     
          12  -9.7170408964640055E-007
Sym=     4a
Ene=  -0.67638675863159070     
Spin= Alpha
Occup=     2.00000000
           1  -1.9910238474630529E-008
           2   1.9537160969636427E-006
           3   9.7873152961459246E-007
           4  0.56526335478417622     
           5  -1.3634552562888576E-009
           6   1.3134708233466981E-006
           7   6.4779398875955643E-007
           8  0.37853395549542529     
           9   2.3669999851454968E-008
          10   1.9746293753338047E-006
          11   9.8343268620533557E-007
          12  0.56562500578771679     
Sym=     5a
Ene=  -0.65785384152260840     
Spin= Alpha
Occup=     2.00000000
           1 -0.35693999466937459     
           2 -0.40709790748184732     
           3 -0.42695509224233580     
           4   2.1481459226595021E-006
           5  -7.0949624410232712E-002
           6  -5.5883070043660388E-002
           7   3.3571125219839869E-002
           8   1.3218927707835697E-007
           9 -0.35631527605887903     
          10  0.18217106237104899     
          11  0.56108733703790370     
          12  -1.6073424221635940E-006
Sym=     6a
Ene=  -0.61561793890405370     
Spin= Alpha
Occup=     2.00000000
           1 -0.25975789141435091     
           2  0.40098272621342823     
           3 -0.37969507021691978     
           4  -7.3463874003099744E-007
           5   1.7225184259786155E-004
           6  0.22193996814975389     
           7  0.37167615200280651     
           8  -1.4145685124960590E-006
           9  0.25990934690384837     
          10 -0.52438575034999313     
          11  0.17197930373242082     
          12   1.5314293368797974E-006
Sym=     7a
Ene=  -0.51865838460751079     
Spin= Alpha
Occup=     2.00000000
           1   1.1362873719715509E-008
           2  -2.5925867574262779E-006
           3  -1.2912682068411968E-006
           4 -0.74355016673414198     
           5  -9.0515118839821815E-010
           6  -3.3785700649539447E-009
           7   1.7488847204877291E-009
           8   4.2934414357739356E-005
           9   1.5233142497254100E-008
          10   2.5883282908723874E-006
          11   1.2894108328253608E-006
          12  0.74311999858330824     
Sym=     8a
Ene=  -0.49164460713707753     
Spin= Alpha
Occup=     2.00000000
           1   4.5042485413207704E-002
           2 -0.27499010088806453     
           3  0.11132595871290042     
           4   7.6012666700425899E-007
           5  0.67160037981282494     
           6  0.57011839171216250     
           7 -0.34027393798407901     
           8  -1.3920488471579367E-006
           9   4.5060085413004068E-002
          10 -0.22851844430005633     
          11  0.18910047698311033     
          12   4.6626260685181082E-007
Sym=     9a
Ene=  -0.34612011769790318     
Spin= Alpha
Occup=     0.00000000
           1  -1.4524730338491519E-009
           2   1.4225547889181024E-006
           3   7.0714976506392692E-007
           4  0.40788291194741805     
           5   3.6342045490747252E-009
           6  -3.3473560192873734E-006
           7  -1.6759339013485691E-006
           8 -0.96002774859331541     
           9   2.6007919519636927E-009
          10   1.4187065502733872E-006
          11   7.1039745279309408E-007
          12  0.40821282934855713     
Sym=    10a
Ene=  -0.28860616441977666     
Spin= Alpha
Occup=     0.00000000
           1  0.23752559802308215     
           2 -0.61210768645510205     
           3 -0.54189936403412853     
           4   3.0785403223224004E-006
           5  -6.6753688072195686E-005
           6  0.14261719199598949     
           7  0.23902069305169363     
           8  -9.1294111407011044E-007
           9 -0.23748969814547244     
          10 -0.18637306051744484     
          11 -0.79598722318699999     
          12   2.0348065787792795E-006
Sym=    11a
Ene=   -8.8680975238648596E-003
Spin= Alpha
Occup=     0.00000000
           1 -0.43401187293054455     
           2 -0.30630656646226012     
           3  0.52043910833684714     
           4   1.6284075189744273E-007
           5   3.6297756673645291E-004
           6  0.50038764110220291     
           7  0.83927944718546010     
           8  -3.2118851946006437E-006
           9  0.43360624115886920     
          10  0.60270418807453174     
          11  -2.2755661332815473E-002
          12  -2.0619602856153628E-006
Sym=    12a
Ene=   0.40586090366265742     
Spin= Alpha
Occup=     0.00000000
           1  0.47738739465858487     
           2  0.28031255436711738     
           3 -0.53102766854231864     
           4  -5.2457889109523411E-008
           5 -0.88442570633018203     
           6  0.87015831415019285     
           7 -0.51872840195380188     
           8  -2.1322102357303428E-006
           9  0.47823361390255409     
          10  0.60139782592915036     
          11   5.2459011454667019E-003
          12  -2.1078733422608208E-006
