3
 energy: -9.942631899937 gnorm: 0.184962985765 xtb: 6.2.2 (9d81278992624c895f80dd42a50cac0aa55982e2)
O        -0.02968600000000    0.55252600000000    0.00000000000000
C         1.08648600000000   -0.28231700000000    0.00000000000000
O        -1.05680000000000   -0.27020900000000    0.00000000000000
3
 energy: -9.975640183860 gnorm: 0.133285926931 xtb: 6.2.2 (9d81278992624c895f80dd42a50cac0aa55982e2)
O         0.00834573195376    0.56212098118989   -0.00000000000000
C         0.98292745822862   -0.27173101926627    0.00000000000000
O        -0.99127319018239   -0.29038996192362    0.00000000000000
3
 energy: -10.006996946599 gnorm: 0.466963746068 xtb: 6.2.2 (9d81278992624c895f80dd42a50cac0aa55982e2)
O         0.11609239388800    0.64856781810109   -0.00000000000000
C         0.68095408942775   -0.27009218664725    0.00000000000000
O        -0.79704648331576   -0.37847563145385    0.00000000000000
3
 energy: -10.055405556437 gnorm: 0.196963666884 xtb: 6.2.2 (9d81278992624c895f80dd42a50cac0aa55982e2)
O         0.10567066980088    0.74692225449804   -0.00000000000000
C         0.60096105803165   -0.32077463412653    0.00000000000000
O        -0.70663172783253   -0.42614762037151    0.00000000000000
3
 energy: -10.053074559702 gnorm: 0.106344930036 xtb: 6.2.2 (9d81278992624c895f80dd42a50cac0aa55982e2)
O         0.06620664997581    0.75538895299387   -0.00000000000000
C         0.70011571264096   -0.34054113260953   -0.00000000000000
O        -0.76632236261677   -0.41484782038434    0.00000000000000
3
 energy: -10.067173099663 gnorm: 0.024418681897 xtb: 6.2.2 (9d81278992624c895f80dd42a50cac0aa55982e2)
O         0.08364163755464    0.81974751352180   -0.00000000000000
C         0.59912736852925   -0.36412008435088   -0.00000000000000
O        -0.68276900608389   -0.45562742917092    0.00000000000000
3
 energy: -10.067500911903 gnorm: 0.017238122020 xtb: 6.2.2 (9d81278992624c895f80dd42a50cac0aa55982e2)
O         0.07803241994439    0.80627655576245   -0.00000000000000
C         0.61386581289889   -0.35990092901042   -0.00000000000000
O        -0.69189823284328   -0.44637562675203    0.00000000000000
3
 energy: -10.067673881840 gnorm: 0.008416373613 xtb: 6.2.2 (9d81278992624c895f80dd42a50cac0aa55982e2)
O         0.07510877944488    0.80706768418460   -0.00000000000000
C         0.61031757720451   -0.36138229846217   -0.00000000000000
O        -0.68542635664939   -0.44568538572243    0.00000000000000
3
 energy: -10.067737932966 gnorm: 0.003773280368 xtb: 6.2.2 (9d81278992624c895f80dd42a50cac0aa55982e2)
O         0.07044833169471    0.80776769359397   -0.00000000000000
C         0.60947634972912   -0.36350199567568   -0.00000000000000
O        -0.67992468142383   -0.44426569791829    0.00000000000000
3
 energy: -10.067744864215 gnorm: 0.001338317665 xtb: 6.2.2 (9d81278992624c895f80dd42a50cac0aa55982e2)
O         0.06895253021173    0.80819128338140   -0.00000000000000
C         0.61021274634484   -0.36428333774774   -0.00000000000000
O        -0.67916527655657   -0.44390794563366    0.00000000000000
3
 energy: -10.067745434026 gnorm: 0.000589358254 xtb: 6.2.2 (9d81278992624c895f80dd42a50cac0aa55982e2)
O         0.06838482389472    0.80857633888247   -0.00000000000000
C         0.61074547494464   -0.36468879834914   -0.00000000000000
O        -0.67913029883936   -0.44388754053333    0.00000000000000
