3
 energy: -10.067745434060 gnorm: 0.000588727105 xtb: 6.2.2 (9d81278992624c895f80dd42a50cac0aa55982e2)
O         0.06838905758425    0.80857598080805   -0.00000164994000
C         0.61074356542869   -0.36469199619942   -0.00000149540186
O        -0.67913262301293   -0.44388398460864    0.00000314534186
