$hessian                                                                        
        0.1797779040  -0.0155919752  -0.0000006003  -0.1674080403   0.1733209694
        0.0000002819  -0.0123698637  -0.1577289942   0.0000003185
       -0.0155919752   0.5338808560  -0.0000008774   0.2520689129  -0.3090637726
       -0.0000003405  -0.2364769377  -0.2248170834   0.0000012178
       -0.0000006003  -0.0000008774   0.0000000000   0.0000001444  -0.0000000656
       -0.0000000000   0.0000004559   0.0000009430  -0.0000000000
       -0.1674080403   0.2520689129   0.0000001444   0.6229477701  -0.2703874808
       -0.0000017026  -0.4555397297   0.0183185680   0.0000015582
        0.1733209694  -0.3090637726  -0.0000000656  -0.2703874808   0.3308045590
        0.0000003665   0.0970665115  -0.0217407865  -0.0000003009
        0.0000002819  -0.0000003405  -0.0000000000  -0.0000017026   0.0000003665
        0.0000000000   0.0000014207  -0.0000000260  -0.0000000000
       -0.0123698637  -0.2364769377   0.0000004559  -0.4555397297   0.0970665115
        0.0000014207   0.4679095934   0.1394104262  -0.0000018766
       -0.1577289942  -0.2248170834   0.0000009430   0.0183185680  -0.0217407865
       -0.0000000260   0.1394104262   0.2465578698  -0.0000009170
        0.0000003185   0.0000012178  -0.0000000000   0.0000015582  -0.0000003009
       -0.0000000000  -0.0000018766  -0.0000009170   0.0000000000
