 Entering Gaussian System
 *********************************************
 Gaussian 98:
 frequency output generated by the xtb code
 *********************************************
                         Standard orientation:
 --------------------------------------------------------------------
  Center     Atomic     Atomic              Coordinates (Angstroms)
  Number     Number      Type              X           Y           Z
 --------------------------------------------------------------------
    1          8             0        0.068389    0.808576   -0.000002
    2          6             0        0.610744   -0.364692   -0.000001
    3          8             0       -0.679133   -0.443884    0.000003
 --------------------------------------------------------------------
     1 basis functions        1 primitive gaussians
     1 alpha electrons        1 beta electrons

 Harmonic frequencies (cm**-1), IR intensities (KM/Mole),
 Raman scattering activities (A**4/amu), Raman depolarization ratios,
 reduced masses (AMU), force constants (mDyne/A) and normal coordinates:
                      1                      2                      3
                        a                      a                      a 
 Frequencies --   901.5436               988.3949              1633.1934
 Red. masses --    14.1688                15.4943                13.6044
 Frc consts  --     0.0000                 0.0000                 0.0000
 IR Inten    --     1.8587                 0.2009                 0.4082
 Raman Activ --     0.0000                 0.0000                 0.0000
 Depolar     --     0.0000                 0.0000                 0.0000
 Atom AN      X      Y      Z        X      Y      Z        X      Y      Z
   1   8     0.22  -0.47   0.00     0.46   0.47  -0.00    -0.14   0.43  -0.00
   2   6     0.35   0.58  -0.00    -0.31   0.18   0.00     0.67  -0.40  -0.00
   3   8    -0.52  -0.03   0.00    -0.20  -0.63   0.00    -0.44  -0.08   0.00
