$hessian                                                                        
        1.2021864319   0.0791465267  -0.1116533028  -0.5158227326  -0.0358066380
        0.0470028931  -0.1780948384  -0.0150714148   0.0159524318  -0.5657113346
       -0.0336659034   0.0530809997   0.0574424737   0.0053974295  -0.0043830219
        0.0791465267   0.0341738660  -0.0079116172  -0.0363330306  -0.0269135187
        0.0023817538  -0.0149062898   0.0095078395   0.0009341136  -0.0327339650
       -0.0140141688   0.0040602867   0.0048267588  -0.0027540180   0.0005354631
       -0.1116533028  -0.0079116172   0.0382675017   0.0472118333   0.0046640628
       -0.0302999651   0.0161172617   0.0018491821   0.0083654856   0.0531019177
        0.0027632996  -0.0152646701  -0.0047777099  -0.0013649273  -0.0010683521
       -0.5158227326  -0.0363330306   0.0472118333   1.3310894542   0.1030105855
       -0.1136769886  -0.5170888288  -0.0420330265   0.0400005340  -0.1490678900
       -0.0102985413   0.0148306707  -0.1491100028  -0.0143459871   0.0116339506
       -0.0358066380  -0.0269135187   0.0046640628   0.1030105855   0.0416906240
       -0.0086336939  -0.0420710932  -0.0293048049   0.0040607610  -0.0114472061
        0.0071574602  -0.0001542478  -0.0136856482   0.0073702394   0.0000631179
        0.0470028931   0.0023817538  -0.0302999651  -0.1136769886  -0.0086336939
        0.0458936407   0.0396625487   0.0034744962  -0.0284674351   0.0144099134
        0.0015740975   0.0063541150   0.0126016333   0.0012033465   0.0065196444
       -0.1780948384  -0.0149062898   0.0161172617  -0.5170888288  -0.0420710932
        0.0396625487   1.2042705465   0.1054503265  -0.0887028339   0.0574627871
        0.0040064465  -0.0054199682  -0.5665496665  -0.0524793901   0.0383429916
       -0.0150714148   0.0095078395   0.0018491821  -0.0420330265  -0.0293048049
        0.0034744962   0.1054503265   0.0373948864  -0.0076083824   0.0045470027
       -0.0019389879  -0.0009547102  -0.0528928880  -0.0156589331   0.0032394144
        0.0159524318   0.0009341136   0.0083654856   0.0400005340   0.0040607610
       -0.0284674351  -0.0887028339  -0.0076083824   0.0346929284  -0.0047661336
       -0.0004727489  -0.0013289633   0.0375160017   0.0030862567  -0.0132620157
       -0.5657113346  -0.0327339650   0.0531019177  -0.1490678900  -0.0114472061
        0.0144099134   0.0574627871   0.0045470027  -0.0047661336   0.6806175336
        0.0416251008  -0.0644627139  -0.0233010960  -0.0019909324   0.0017170163
       -0.0336659034  -0.0140141688   0.0027632996  -0.0102985413   0.0071574602
        0.0015740975   0.0040064465  -0.0019389879  -0.0004727489   0.0416251008
        0.0081448492  -0.0039030853  -0.0016671026   0.0006508472   0.0000384370
        0.0530809997   0.0040602867  -0.0152646701   0.0148306707  -0.0001542478
        0.0063541150  -0.0054199682  -0.0009547102  -0.0013289633  -0.0644627139
       -0.0039030853   0.0103254025   0.0019710116   0.0009517566  -0.0000858842
        0.0574424737   0.0048267588  -0.0047777099  -0.1491100028  -0.0136856482
        0.0126016333  -0.5665496665  -0.0528928880   0.0375160017  -0.0233010960
       -0.0016671026   0.0019710116   0.6815182916   0.0634188801  -0.0473109367
        0.0053974295  -0.0027540180  -0.0013649273  -0.0143459871   0.0073702394
        0.0012033465  -0.0524793901  -0.0156589331   0.0030862567  -0.0019909324
        0.0006508472   0.0009517566   0.0634188801   0.0103918645  -0.0038764324
       -0.0043830219   0.0005354631  -0.0010683521   0.0116339506   0.0000631179
        0.0065196444   0.0383429916   0.0032394144  -0.0132620157   0.0017170163
        0.0000384370  -0.0000858842  -0.0473109367  -0.0038764324   0.0078966075
