[Molden Format]
[Title]
[Atoms] AU
C      1     6 -0.62918745336305E+00  0.20317851929350E+01  0.95787163827138E-01
C      2     6 -0.15255923312331E+01  0.11113038768710E-01  0.15500074079879E+01
C      3     6 -0.13559459577515E+01 -0.15297188532097E+01 -0.59435490215381E+00
N      4     7  0.82923568427204E+00 -0.50232266893896E-01 -0.61319041997322E+00
H      5     1  0.26814919478115E+01 -0.46294522188413E+00 -0.43824924969794E+00
[GTO]
           1 0
 s           4   1.0000000000000000     
   51.049363095579913      -0.16312063210127389     
   8.7911227406887544      -0.19911024581000730     
  0.70640422258929825       0.31882047753655751     
  0.26922813413411617       0.12706504184240380     
 p           4   1.0000000000000000     
   5.8263656140800002       0.73716451545209605     
   1.5106896018720002       0.68216371614850257     
  0.53256483288000001       0.35783053929253711     
  0.21202323690600003        5.3983030275847881E-002

           2 0
 s           4   1.0000000000000000     
   51.049363095579913      -0.16312063210127389     
   8.7911227406887544      -0.19911024581000730     
  0.70640422258929825       0.31882047753655751     
  0.26922813413411617       0.12706504184240380     
 p           4   1.0000000000000000     
   5.8263656140800002       0.73716451545209605     
   1.5106896018720002       0.68216371614850257     
  0.53256483288000001       0.35783053929253711     
  0.21202323690600003        5.3983030275847881E-002

           3 0
 s           4   1.0000000000000000     
   51.049363095579913      -0.16312063210127389     
   8.7911227406887544      -0.19911024581000730     
  0.70640422258929825       0.31882047753655751     
  0.26922813413411617       0.12706504184240380     
 p           4   1.0000000000000000     
   5.8263656140800002       0.73716451545209605     
   1.5106896018720002       0.68216371614850257     
  0.53256483288000001       0.35783053929253711     
  0.21202323690600003        5.3983030275847881E-002

           4 0
 s           4   1.0000000000000000     
   63.594024466941008      -0.19234388414721629     
   10.951417231523665      -0.23478107924953728     
  0.87999310257376984       0.37593753901700888     
  0.33538715296521110       0.14982889271862770     
 p           4   1.0000000000000000     
   7.2965040481495080       0.97658666315667420     
   1.8918745450712575       0.90372226730345739     
  0.66694432110824120       0.47404958461536373     
  0.26552202674130870        7.1516067715011844E-002

           5 0
 s           3   1.0000000000000000     
   3.3702276975336001       0.27359110588908298     
  0.61389118221497996       0.26460540653860526     
  0.16614291148415999        8.2465947534082318E-002

[MO]
Sym=     1a
Ene=  -0.74175259544623606     
Spin= Alpha
Occup=     2.00000000
           1  0.26678032952121239     
           2   2.2611182233191911E-002
           3 -0.13625390830288675     
           4   3.3416755917730044E-003
           5  0.27019263525838205     
           6   8.6587689585088265E-002
           7   5.3171093606524684E-003
           8 -0.11865033891005822     
           9  0.26680288797204810     
          10   7.2158486219754681E-002
          11  0.10650538872885200     
          12   5.0384467479237374E-002
          13  0.37622616340369541     
          14 -0.22231891863896694     
          15   2.1510553092046292E-002
          16  0.12299817106273034     
          17   3.4410352356308002E-002
Sym=     2a
Ene=  -0.65294225031276354     
Spin= Alpha
Occup=     2.00000000
           1   8.9632120847828983E-002
           2 -0.11944332192889372     
           3  -1.8805230350551764E-002
           4   4.5373966232072425E-002
           5  0.20540771160229759     
           6  -4.5150862882736398E-002
           7   1.9438301373469084E-002
           8  -5.1677708181753094E-002
           9   8.8860350827621920E-002
          10 -0.10667770249510354     
          11   4.4966073600987429E-002
          12   5.7698715888739302E-002
          13 -0.50643003919065410     
          14 -0.35076800818627446     
          15   6.3051121710076499E-002
          16   4.6820040744122535E-002
          17 -0.38583911248312042     
Sym=     3a
Ene=  -0.64313788635772562     
Spin= Alpha
Occup=     2.00000000
           1  0.41913110252703561     
           2  0.11032932999268069     
           3  -2.6439127002483007E-002
           4   1.9021113597665642E-002
           5  -2.2939290735084924E-004
           6   4.5763547477111942E-002
           7  0.22396414011199375     
           8   4.3451604485396950E-002
           9 -0.41929443111701220     
          10 -0.11016237591292170     
          11   2.5926227967673337E-002
          12  -1.9244591940717148E-002
          13   5.7638461493525017E-004
          14  0.10002916226463732     
          15  0.48840262389861855     
          16   9.4592219321370755E-002
          17   3.1529623781462228E-004
Sym=     4a
Ene=  -0.59435163893189846     
Spin= Alpha
Occup=     2.00000000
           1  -8.4433391633935317E-002
           2  -5.1953419424208350E-002
           3   4.5854955053112375E-003
           4  0.28015369402584950     
           5  0.40157352770252469     
           6   6.4044778527123841E-002
           7  -3.0408235881867696E-002
           8   8.9641044604687040E-002
           9  -8.4533266394406545E-002
          10  -7.0211820075424508E-002
          11  -8.4867802716282414E-002
          12  0.26282064470603728     
          13 -0.17231797049452122     
          14  0.28870865482849062     
          15 -0.14912173184498434     
          16  0.46564670935329283     
          17  0.17229456483788610     
Sym=     5a
Ene=  -0.53094993150673109     
Spin= Alpha
Occup=     2.00000000
           1 -0.18849122095215923     
           2  0.28089730499586535     
           3  -7.2120673812430369E-002
           4   2.3029967055203732E-002
           5 -0.30823419182771850     
           6  0.38948543291288357     
           7  -9.1979612930075005E-002
           8   6.3175209713332431E-002
           9 -0.18819267127023737     
          10  0.28449575026106738     
          11  -5.3025043353064814E-002
          12   2.6975290091786334E-002
          13   3.2441644656763101E-002
          14 -0.26920015819036908     
          15  -2.7365927454899543E-002
          16  0.42590970792015997     
          17 -0.22837392212609608     
Sym=     6a
Ene=  -0.51965090847523399     
Spin= Alpha
Occup=     2.00000000
           1  0.19846683786672809     
           2 -0.28256023367874272     
           3   8.3499092318499543E-002
           4  0.25040543131461263     
           5  -2.0324470532771422E-004
           6   8.5877416170372672E-002
           7  0.41968999148336822     
           8   8.1348626180658704E-002
           9 -0.19862100466237814     
          10  0.31097796655120974     
          11   5.4260383377684622E-002
          12 -0.22369866638450298     
          13  -8.7407703253192617E-005
          14  -8.5739943579531575E-002
          15 -0.41905160145734244     
          16  -8.0958667082714736E-002
          17  -9.2817986941154699E-005
Sym=     7a
Ene=  -0.45999922907982876     
Spin= Alpha
Occup=     2.00000000
           1  0.47133566909430941     
           2   3.5860553336527067E-002
           3  0.36934605970339746     
           4   3.7267201345185810E-002
           5 -0.35898013182831634     
           6  0.10518086275451183     
           7   2.3744712242321421E-002
           8 -0.23350833154731879     
           9  0.47128124846052449     
          10 -0.10934191545006765     
          11 -0.34207743353457865     
          12 -0.10051626054365773     
          13 -0.18219687964786727     
          14   8.9769256003078987E-002
          15  -6.9789890293858931E-002
          16  0.26569980070414995     
          17   7.4995027341287851E-002
Sym=     8a
Ene=  -0.42750476689744266     
Spin= Alpha
Occup=     2.00000000
           1 -0.18155672631088660     
           2 -0.27822162914724491     
           3 -0.22712767703626666     
           4  -9.7341627471432962E-002
           5 -0.38424968554240091     
           6  -6.5771097319294203E-002
           7  0.12080091053590182     
           8 -0.55426924004379075     
           9 -0.18160962731802663     
          10 -0.16372691976243697     
          11  0.33398463354282965     
          12   1.1466615334484141E-002
          13  -6.4766390707966387E-002
          14   7.4114199298471045E-002
          15  -8.3125237090301451E-002
          16  0.35096291885596470     
          17  0.11836398768930743     
Sym=     9a
Ene=  -0.41155112432537966     
Spin= Alpha
Occup=     2.00000000
           1  0.36767433012594214     
           2 -0.13909806534570762     
           3  0.41934534089489006     
           4 -0.33353506597165272     
           5   4.0321792133332102E-005
           6  -5.8175320942783097E-002
           7 -0.28516471738551735     
           8  -5.5194816148527032E-002
           9 -0.36770793213046277     
          10  0.26255568480974922     
          11  0.18543844144556770     
          12  0.45070732351263793     
          13  -2.6805898589911351E-005
          14  -3.4998381259499486E-002
          15 -0.17124238519148377     
          16  -3.3225614693180854E-002
          17   1.2106162737689968E-005
Sym=    10a
Ene=  -0.29229843851992016     
Spin= Alpha
Occup=     0.00000000
           1  -3.4136543750944420E-003
           2 -0.47103337721402433     
           3 -0.40398742571721297     
           4 -0.42332918922352092     
           5   3.5275106289955458E-005
           6   3.2139976907315251E-002
           7  0.15758829938276536     
           8   3.0633859735289773E-002
           9   3.4464152198122162E-003
          10  0.25082804045070861     
          11 -0.67477540711388084     
          12  0.21406966446256043     
          13   5.3820282170754457E-006
          14   3.3317859597734388E-002
          15  0.16324206665553173     
          16   3.1742142007520027E-002
          17   1.8744443522895554E-006
Sym=    11a
Ene=  -0.28644155339676547     
Spin= Alpha
Occup=     0.00000000
           1   5.8923848240938353E-002
           2 -0.13165346108182771     
           3   5.9125316360947741E-002
           4 -0.52710990105936895     
           5  0.17892666053902248     
           6 -0.16480628080698637     
           7  -5.7985776318463127E-002
           8  0.47266346784066260     
           9   5.8923927594708263E-002
          10 -0.10537906295663589     
          11  0.18888336682725013     
          12 -0.50210007006532020     
          13  -2.2553093279417770E-002
          14  -7.0617573196107022E-002
          15  -9.6702092223451205E-002
          16  0.57324568936792042     
          17   9.2420987207657276E-002
Sym=    12a
Ene=  -0.25353539406141246     
Spin= Alpha
Occup=     0.00000000
           1   3.9805800984915617E-002
           2 -0.31554672344312196     
           3  -2.8285365882611616E-002
           4 -0.14467773127367228     
           5   6.5743688748029050E-002
           6  0.89987902309078605     
           7 -0.20143549757861987     
           8   9.1902129217944065E-002
           9   3.9785996758677257E-002
          10 -0.26999781340452716     
          11  0.19540930861471298     
          12 -0.10132922533615975     
          13 -0.26868948782408497     
          14  0.11586561263017593     
          15   3.5140215058341959E-002
          16 -0.30335859276797633     
          17  0.19147224527825646     
Sym=    13a
Ene=   -4.8804351604003746E-002
Spin= Alpha
Occup=     0.00000000
           1   7.7850986422243029E-002
           2  0.44615495168548602     
           3 -0.22601126642124300     
           4 -0.18380054518128960     
           5  0.19224383945326851     
           6  -8.6923793833100074E-002
           7   5.5899276438241059E-002
           8 -0.19566316525965433     
           9   7.7491696330049917E-002
          10  0.50969552529175677     
          11   8.9794125807079003E-002
          12 -0.12216663573577441     
          13 -0.99915042912402818     
          14  -7.4061598282425270E-002
          15   3.9179680675165078E-002
          16 -0.12672762571912832     
          17  0.69769927381597407     
Sym=    14a
Ene=    4.5026318428835393E-002
Spin= Alpha
Occup=     0.00000000
           1 -0.14238898514174236     
           2 -0.52815626559952011     
           3  0.21849806310166869     
           4  0.42754660745948708     
           5   3.2674637849885237E-004
           6 -0.10102231925431933     
           7 -0.49511321116622720     
           8  -9.6243903300546274E-002
           9  0.14258532907985852     
          10  0.60232303673056997     
          11  0.14046397297922963     
          12 -0.35848762377657123     
          13  -7.3938209945023994E-004
          14  0.15505046622764987     
          15  0.75784659023690804     
          16  0.14676958438923832     
          17   2.0488198049859249E-004
Sym=    15a
Ene=   0.19986080819123098     
Spin= Alpha
Occup=     0.00000000
           1   1.2413669476114299E-002
           2 -0.28871793983769811     
           3  -9.0966047259092696E-003
           4  0.34445117054276797     
           5 -0.53290428276039181     
           6 -0.15853137956577767     
           7  -5.9262242231482666E-002
           8  0.46490626585674782     
           9   1.0852263252541686E-002
          10 -0.28828225360711196     
          11  -7.6889876217006185E-003
          12  0.34328333090165231     
          13  -6.7386867094084077E-002
          14 -0.91567742191925316     
          15  0.18318673747425049     
          16   1.8415116833310496E-002
          17  0.84108485690900647     
Sym=    16a
Ene=   0.23867055936579393     
Spin= Alpha
Occup=     0.00000000
           1 -0.60272200184083657     
           2   9.9079455609506276E-003
           3  0.55530794902650860     
           4 -0.29035851570815452     
           5  -7.3725309111836404E-004
           6  0.17392491250003589     
           7  0.85336109474522370     
           8  0.16601809014219668     
           9  0.60281268623752637     
          10  0.17890085591310145     
          11  0.37329907306775129     
          12  0.47123503068653805     
          13  -2.6400195203342674E-004
          14   8.3172163360934817E-002
          15  0.41416448285252211     
          16   8.0206028179232516E-002
          17   1.3355009216674167E-003
Sym=    17a
Ene=   0.50792003530528218     
Spin= Alpha
Occup=     0.00000000
           1  0.57972812809746976     
           2  -2.4433160041112852E-002
           3 -0.65402584148380871     
           4  0.15272814455601749     
           5 -0.73893902420527502     
           6 -0.17348934236349309     
           7  -9.4216152162434744E-002
           8  0.66903413949941715     
           9  0.57971785289062838     
          10  0.21352676162212086     
          11  0.51241604656729933     
          12  0.37880951288533954     
          13 -0.24782392183281438     
          14  0.62310001509260105     
          15 -0.12368500133798069     
          16  -1.8568008226207560E-002
          17 -0.35778585983607569     
