$hessian                                                                        
        0.1417353247  -0.0188602483  -0.0622936322  -0.0333066711  -0.0556017163
        0.0357460771   0.0301398883  -0.0275643065  -0.0005719459  -0.1280030252
        0.0835895891   0.0167358462  -0.0105655168   0.0184366820   0.0103836548
       -0.0188602483   0.4878280628  -0.0922476524  -0.0942853077  -0.2291390603
        0.1645109774  -0.0165931988  -0.0691485406  -0.0196938179   0.1279032824
       -0.1892786721  -0.0485223730   0.0018354725  -0.0002617897  -0.0040471341
       -0.0622936322  -0.0922476524   0.1178634406   0.0327543093   0.1304397625
       -0.1095906472   0.0020989814  -0.0174459322   0.0178644863   0.0248252322
       -0.0221675549  -0.0153672135   0.0026151093   0.0014213770  -0.0107700662
       -0.0333066711  -0.0942853077   0.0327543093   0.1103697701   0.0620729410
       -0.1039356933  -0.0059193892   0.0192180199  -0.0049305176  -0.0673453762
        0.0138533180   0.0725449721  -0.0037983336  -0.0008589711   0.0035669295
       -0.0556017163  -0.2291390603   0.1304397625   0.0620729410   0.3017280456
        0.0078879086  -0.0153154936  -0.1343968264  -0.1437260249   0.0084311318
        0.0654859665   0.0111302576   0.0004131371  -0.0036781253  -0.0057319039
        0.0357460771   0.1645109774  -0.1095906472  -0.1039356933   0.0078879086
        0.3847050341  -0.0292459478  -0.1734842500  -0.2317918906   0.1005247763
        0.0054051653  -0.0643755662  -0.0030892122  -0.0043198013   0.0210530699
        0.0301398883  -0.0165931988   0.0020989814  -0.0059193892  -0.0153154936
       -0.0292459478   0.2076136308   0.1239035179   0.0306445172  -0.2146778118
       -0.0773068653  -0.0092358074  -0.0171563182  -0.0146879601   0.0057382565
       -0.0275643065  -0.0691485406  -0.0174459322   0.0192180199  -0.1343968264
       -0.1734842500   0.1239035179   0.3050305493   0.1919223003  -0.1194073045
       -0.1058608796  -0.0066356085   0.0038500732   0.0043756974   0.0056434905
       -0.0005719459  -0.0196938179   0.0178644863  -0.0049305176  -0.1437260249
       -0.2317918906   0.0306445172   0.1919223003   0.2348856959  -0.0281392297
       -0.0307401105  -0.0120622255   0.0029971760   0.0022376530  -0.0088960660
       -0.1280030252   0.1279032824   0.0248252322  -0.0673453762   0.0084311318
        0.1005247763  -0.2146778118  -0.1194073045  -0.0281392297   0.7743553957
       -0.0940248555  -0.0471218867  -0.3643291826   0.0770977458  -0.0500888920
        0.0835895891  -0.1892786721  -0.0221675549   0.0138533180   0.0654859665
        0.0054051653  -0.0773068653  -0.1058608796  -0.0307401105  -0.0940248555
        0.2806190154   0.0399838172   0.0738888138  -0.0509654302   0.0075186829
        0.0167358462  -0.0485223730  -0.0153672135   0.0725449721   0.0111302576
       -0.0643755662  -0.0092358074  -0.0066356085  -0.0120622255  -0.0471218867
        0.0399838172   0.1120519580  -0.0329231243   0.0040439068  -0.0202469529
       -0.0105655168   0.0018354725   0.0026151093  -0.0037983336   0.0004131371
       -0.0030892122  -0.0171563182   0.0038500732   0.0029971760  -0.3643291826
        0.0738888138  -0.0329231243   0.3958493511  -0.0799874965   0.0304000512
        0.0184366820  -0.0002617897   0.0014213770  -0.0008589711  -0.0036781253
       -0.0043198013  -0.0146879601   0.0043756974   0.0022376530   0.0770977458
       -0.0509654302   0.0040439068  -0.0799874965   0.0505296479  -0.0033831354
        0.0103836548  -0.0040471341  -0.0107700662   0.0035669295  -0.0057319039
        0.0210530699   0.0057382565   0.0056434905  -0.0088960660  -0.0500888920
        0.0075186829  -0.0202469529   0.0304000512  -0.0033831354   0.0188600151
