5
 energy: -9.537905291272 gnorm: 0.000330161840 xtb: 6.2.2 (9d81278992624c895f80dd42a50cac0aa55982e2)
C        -0.33295169259703    1.07517452130593    0.05068838889722
C        -0.80730876971896    0.00588076740590    0.82022867313876
C        -0.71753576663101   -0.80949243131183   -0.31451909858932
N         0.43881266729730   -0.02658177335850   -0.32448642629968
H         1.41898456165494   -0.24498008404674   -0.23191153715221
