      -----------------------------------------------------------      
     |                   =====================                   |     
     |                           x T B                           |     
     |                   =====================                   |     
     |                         S. Grimme                         |     
     |          Mulliken Center for Theoretical Chemistry        |     
     |                    University of Bonn                     |     
      -----------------------------------------------------------      

   * xtb version 6.2.2 (9d81278992624c895f80dd42a50cac0aa55982e2) compiled by '@Darwin' on 04/03/2020

   xtb is free software: you can redistribute it and/or modify it under
   the terms of the GNU Lesser General Public License as published by
   the Free Software Foundation, either version 3 of the License, or
   (at your option) any later version.
   
   xtb is distributed in the hope that it will be useful,
   but WITHOUT ANY WARRANTY; without even the implied warranty of
   MERCHANTABILITY or FITNESS FOR A PARTICULAR PURPOSE.  See the
   GNU Lesser General Public License for more details.
   
   Cite this work as:
   * S. Grimme, C. Bannwarth, P. Shushkov, J. Chem. Theory Comput., 2017,
     13, 1989-2009. DOI: 10.1021/acs.jctc.7b00118
   * C. Bannwarth, S. Ehlert and S. Grimme., J. Chem. Theory Comput., 2019,
     15, 1652-1671. DOI: 10.1021/acs.jctc.8b01176
   * P. Pracht, E. Caldeweyher, S. Ehlert, S. Grimme, ChemRxiv, 2019, preprint.
     DOI: 10.26434/chemrxiv.8326202.v1
   
   for DFT-D4:
   * E. Caldeweyher, C. Bannwarth and S. Grimme, J. Chem. Phys., 2017,
     147, 034112. DOI: 10.1063/1.4993215
   * E. Caldeweyher, S. Ehlert, A. Hansen, H. Neugebauer, S. Spicher,
     C. Bannwarth and S. Grimme, J. Chem. Phys., 2019, 150, 154122.
     DOI: 10.1063/1.5090222
   
   for sTDA-xTB:
   * S. Grimme and C. Bannwarth, J. Chem. Phys., 2016, 145, 054103.
     DOI: 10.1063/1.4959605
   
   in the mass-spec context:
   * V. Asgeirsson, C. Bauer and S. Grimme, Chem. Sci., 2017, 8, 4879.
     DOI: 10.1039/c7sc00601b
   
   for metadynamics refer to:
   * S. Grimme, J. Chem. Theory Comput., 2019, 155, 2847-2862
     DOI: 10.1021/acs.jctc.9b00143
   
   with help from (in alphabetical order)
   C. Bannwarth, F. Bohle, G. Brandenburg, E. Caldeweyher, M. Checinski,
   S. Dohm, S. Ehlert, S. Ehrlich, F. März, H. Neugebauer, J. Pisarek,
   P. Pracht, P. Shushkov, and S. Spicher.
   
 * started run on 2020/05/12 at 11:44:21.588     

           -------------------------------------------------
          |                Calculation Setup                |
           -------------------------------------------------

          program call               : xtb --input C4N1_52_S_1.input C4N1_52_S_1.xyz --ohess --molden --namespace C4N1_52_S_1 output.out
          calculation namespace      : C4N1_52_S_1
          coordinate file            : C4N1_52_S_1.xyz
          number of atoms            :                     5
          number of electrons        :                    21
          charge                     :                     0
          spin                       :                   0.5
          first test random number   :      0.45405083306476

   ID    Z sym.   atoms
    1    7 N      1
    2    6 C      2-5

           -------------------------------------------------
          |                 G F N 2 - x T B                 |
           -------------------------------------------------

        Reference                      10.1021/acs.jctc.8b01176
      * Hamiltonian:
        H0-scaling (s, p, d)           1.850000    2.230000    2.230000
        zeta-weighting                 0.500000
      * Dispersion:
        s8                             2.700000
        a1                             0.520000
        a2                             5.000000
        s9                             5.000000
      * Repulsion:
        kExp                           1.500000    1.000000
        rExp                           1.000000
      * Coulomb:
        alpha                          2.000000
        third order                    shell-resolved
        anisotropic                    true
        a3                             3.000000
        a5                             4.000000
        cn-shift                       1.200000
        cn-exp                         4.000000
        max-rad                        5.000000


          ...................................................
          :                      SETUP                      :
          :.................................................:
          :  # basis functions                  20          :
          :  # atomic orbitals                  20          :
          :  # shells                           10          :
          :  # electrons                        21          :
          :  max. iterations                   250          :
          :  Hamiltonian                  GFN2-xTB          :
          :  restarted?                      false          :
          :  GBSA solvation                  false          :
          :  PC potential                    false          :
          :  electronic temp.          300.0000000     K    :
          :  accuracy                    1.0000000          :
          :  -> integral cutoff          0.2500000E+02      :
          :  -> integral neglect         0.1000000E-07      :
          :  -> SCF convergence          0.1000000E-05 Eh   :
          :  -> wf. convergence          0.1000000E-03 e    :
          :  Broyden damping             0.4000000          :
          ...................................................

 iter      E             dE          RMSdq      gap      omega  full diag
   1    -10.8922061 -0.108922E+02  0.918E+00    1.99       0.0  T
   2    -10.7134195  0.178787E+00  0.845E+00    0.29       1.0  T
   3    -10.8175496 -0.104130E+00  0.671E+00    0.81       1.0  T
   4    -11.0254608 -0.207911E+00  0.382E+00    0.70       1.0  T
   5    -11.0718062 -0.463454E-01  0.238E+00    1.14       1.0  T
   6    -11.0845938 -0.127875E-01  0.109E+00    0.96       1.0  T
   7    -11.0845938 -0.293927E-08  0.122E+00    0.98       1.0  T
   8    -11.0844152  0.178592E-03  0.552E-01    0.99       1.0  T
   9    -11.0862135 -0.179829E-02  0.724E-02    0.95       1.0  T
  10    -11.0862208 -0.737476E-05  0.457E-02    0.95       1.0  T
  11    -11.0862270 -0.610728E-05  0.353E-02    0.95       1.3  T
  12    -11.0862317 -0.475497E-05  0.234E-02    0.95       1.9  T
  13    -11.0862325 -0.802920E-06  0.153E-02    0.95       2.9  T
  14    -11.0862331 -0.595544E-06  0.266E-03    0.95      16.8  T
  15    -11.0862331 -0.346097E-07  0.251E-03    0.95      17.8  T
  16    -11.0862331 -0.183856E-08  0.403E-04    0.95     111.0  T
  17    -11.0862331  0.134541E-10  0.116E-04    0.95     386.4  T

   *** convergence criteria satisfied after 17 iterations ***

         #    Occupation            Energy/Eh            Energy/eV
      -------------------------------------------------------------
         1        2.0000           -0.7636695             -20.7805
       ...           ...                  ...                  ...
         5        2.0000           -0.5566218             -15.1464
         6        2.0000           -0.5500371             -14.9673
         7        2.0000           -0.4987511             -13.5717
         8        2.0000           -0.4772675             -12.9871
         9        1.9998           -0.4564173             -12.4197
        10        1.6650           -0.4488834             -12.2147
        11        1.3352           -0.4475813             -12.1793 (HOMO)
        12                         -0.4127013             -11.2302 (LUMO)
        13                         -0.3295737              -8.9682
        14                         -0.1330633              -3.6208
        15                         -0.1198932              -3.2625
        16                          0.0197382               0.5371
       ...                                ...                  ...
        20                          0.2002009               5.4477
      -------------------------------------------------------------
                  HL-Gap            0.0348801 Eh            0.9491 eV
             Fermi-level           -0.4391329 Eh          -11.9494 eV

 SCC (total)                   0 d,  0 h,  0 min,  0.005 sec
 SCC setup                      ...        0 min,  0.000 sec (  1.520%)
 Dispersion                     ...        0 min,  0.000 sec (  0.368%)
 integral evaluation            ...        0 min,  0.001 sec ( 27.748%)
 zeroth order Hamiltonian       ...        0 min,  0.000 sec (  0.392%)
 iterations                     ...        0 min,  0.002 sec ( 38.193%)
 molecular gradient             ...        0 min,  0.001 sec ( 30.048%)
 printout                       ...        0 min,  0.000 sec (  1.564%)

         :::::::::::::::::::::::::::::::::::::::::::::::::::::
         ::                     SUMMARY                     ::
         :::::::::::::::::::::::::::::::::::::::::::::::::::::
         :: total energy             -10.971686163385 Eh    ::
         :: gradient norm              0.216272484072 Eh/a0 ::
         :: HOMO-LUMO gap              0.949134530312 eV    ::
         ::.................................................::
         :: SCC energy               -11.086233143335 Eh    ::
         :: -> isotropic ES           -0.001275379288 Eh    ::
         :: -> anisotropic ES          0.002446044012 Eh    ::
         :: -> anisotropic XC          0.006545655686 Eh    ::
         :: -> dispersion             -0.002481969693 Eh    ::
         :: repulsion energy           0.114546956586 Eh    ::
         :: add. restraining           0.000000000000 Eh    ::
         :::::::::::::::::::::::::::::::::::::::::::::::::::::

      ----------------------------------------------------------- 
     |                   =====================                   |
     |                        A N C O P T                        |
     |                   =====================                   |
     |               Approximate Normal Coordinate               |
     |                Rational Function Optimizer                |
      ----------------------------------------------------------- 

          ...................................................
          :                      SETUP                      :
          :.................................................:
          :   optimization level            normal          :
          :   max. optcycles                   200          :
          :   ANC micro-cycles                  20          :
          :   degrees of freedom                 9          :
          :.................................................:
          :   RF solver                   davidson          :
          :   write xtbopt.log                true          :
          :   linear?                        false          :
          :   energy convergence         0.5000000E-05 Eh   :
          :   grad. convergence          0.1000000E-02 Eh/α :
          :   maximium RF displ.         1.0000000          :
          :   Hlow (freq-cutoff)         0.1000000E-01      :
          :   Hmax (freq-cutoff)         5.0000000          :
          :   S6 in model hess.         20.0000000          :
          ...................................................

generating ANC from model Hessian ...
Using Lindh-Hessian (1995)
 Shifting diagonal of input Hessian by    0.0000000000000000     
 Lowest  eigenvalues of input Hessian
   -0.000000   -0.000000   -0.000000    0.000000    0.000000    0.000000
    0.121845    0.475961    0.587518    0.775649    0.927606    0.991412
    1.161648    1.471446    1.731626
 Highest eigenvalues
    0.775649    0.927606    0.991412    1.161648    1.471446    1.731626


........................................................................
.............................. CYCLE    1 ..............................
........................................................................
   1    -11.0862331 -0.110862E+02  0.184E-05    0.95       0.0  T
   2    -11.0862331  0.350955E-10  0.948E-05    0.95     472.0  T
   3    -11.0862331 -0.363940E-10  0.217E-06    0.95   20644.6  T
     SCC iter.                  ...        0 min,  0.000 sec
     gradient                   ...        0 min,  0.001 sec
 * total energy  :   -10.9716862 Eh     change       -0.9718892E-09 Eh
   gradient norm :     0.2162728 Eh/α   predicted     0.0000000E+00 (-100.00%)
   displ. norm   :     0.2532810 α      lambda       -0.5092824E-01
   maximum displ.:     0.1788726 α      in ANC's #2, #5, #9, ...

........................................................................
.............................. CYCLE    2 ..............................
........................................................................
   1    -11.1337843 -0.111338E+02  0.234E+00    1.40       0.0  T
   2    -11.0859852  0.477992E-01  0.287E+00    1.57       1.0  T
   3    -11.1197134 -0.337282E-01  0.176E+00    1.25       1.0  T
   4    -11.1324301 -0.127167E-01  0.870E-01    1.41       1.0  T
   5    -11.1327464 -0.316368E-03  0.725E-01    1.38       1.0  T
   6    -11.1340667 -0.132025E-02  0.595E-01    1.41       1.0  T
   7    -11.1350991 -0.103240E-02  0.378E-01    1.43       1.0  T
   8    -11.1357469 -0.647787E-03  0.115E-01    1.45       1.0  T
   9    -11.1358109 -0.640188E-04  0.212E-02    1.45       2.1  T
  10    -11.1358102  0.714028E-06  0.281E-02    1.46       1.6  T
  11    -11.1358129 -0.265940E-05  0.157E-02    1.46       2.9  T
  12    -11.1358138 -0.984057E-06  0.800E-03    1.45       5.6  T
  13    -11.1358138  0.238543E-07  0.761E-03    1.46       5.9  T
  14    -11.1358141 -0.283753E-06  0.673E-04    1.46      66.5  T
  15    -11.1358141 -0.174925E-08  0.999E-05    1.46     447.4  T
     SCC iter.                  ...        0 min,  0.001 sec
     gradient                   ...        0 min,  0.001 sec
 * total energy  :   -11.0121644 Eh     change       -0.4047823E-01 Eh
   gradient norm :     0.1206910 Eh/α   predicted    -0.2709768E-01 ( -33.06%)
   displ. norm   :     0.3023908 α      lambda       -0.3456378E-01
   maximum displ.:     0.2168418 α      in ANC's #5, #2, #9, ...

........................................................................
.............................. CYCLE    3 ..............................
........................................................................
   1    -11.1669135 -0.111669E+02  0.265E+00    2.09       0.0  T
   2    -11.1472931  0.196204E-01  0.221E+00    1.67       1.0  T
   3    -11.0863534  0.609397E-01  0.381E+00    2.10       1.0  T
   4    -11.1704063 -0.840529E-01  0.112E+00    1.91       1.0  T
   5    -11.1706630 -0.256718E-03  0.103E+00    1.91       1.0  T
   6    -11.1714338 -0.770799E-03  0.944E-01    1.92       1.0  T
   7    -11.1747330 -0.329914E-02  0.398E-01    1.98       1.0  T
   8    -11.1751718 -0.438824E-03  0.265E-01    1.99       1.0  T
   9    -11.1754144 -0.242604E-03  0.138E-01    2.00       1.0  T
  10    -11.1753532  0.612029E-04  0.180E-01    2.01       1.0  T
  11    -11.1755029 -0.149715E-03  0.219E-02    2.01       2.0  T
  12    -11.1755049 -0.204227E-05  0.846E-03    2.01       5.3  T
  13    -11.1754998  0.518767E-05  0.346E-02    2.01       1.3  T
  14    -11.1755052 -0.546936E-05  0.375E-03    2.01      11.9  T
  15    -11.1755053 -0.357175E-07  0.260E-03    2.01      17.2  T
  16    -11.1755053 -0.316791E-07  0.171E-04    2.01     261.7  T
  17    -11.1755053 -0.119487E-09  0.478E-05    2.01     935.6  T
     SCC iter.                  ...        0 min,  0.002 sec
     gradient                   ...        0 min,  0.001 sec
 * total energy  :   -11.0271185 Eh     change       -0.1495405E-01 Eh
   gradient norm :     0.0589612 Eh/α   predicted    -0.1886214E-01 (  26.13%)
   displ. norm   :     0.0492953 α      lambda       -0.2508232E-02
   maximum displ.:     0.0359432 α      in ANC's #2, #8, #5, ...

........................................................................
.............................. CYCLE    4 ..............................
........................................................................
   1    -11.1643926 -0.111644E+02  0.488E-01    1.88       0.0  T
   2    -11.1078698  0.565228E-01  0.291E+00    2.03       1.0  T
   3    -11.1653961 -0.575263E-01  0.286E-01    1.92       1.0  T
   4    -11.1652717  0.124396E-03  0.273E-01    1.91       1.0  T
   5    -11.1654671 -0.195330E-03  0.193E-01    1.92       1.0  T
   6    -11.1655621 -0.950319E-04  0.143E-01    1.93       1.0  T
   7    -11.1655699 -0.783676E-05  0.137E-01    1.93       1.0  T
   8    -11.1656185 -0.485869E-04  0.935E-02    1.93       1.0  T
   9    -11.1656496 -0.310796E-04  0.492E-02    1.93       1.0  T
  10    -11.1656597 -0.100536E-04  0.183E-02    1.94       2.4  T
  11    -11.1656612 -0.151257E-05  0.468E-03    1.94       9.5  T
  12    -11.1656611  0.339417E-07  0.539E-03    1.94       8.3  T
  13    -11.1656613 -0.143277E-06  0.715E-04    1.94      62.5  T
  14    -11.1656613 -0.215324E-08  0.288E-04    1.94     155.4  T
     SCC iter.                  ...        0 min,  0.002 sec
     gradient                   ...        0 min,  0.001 sec
 * total energy  :   -11.0286495 Eh     change       -0.1531039E-02 Eh
   gradient norm :     0.0181068 Eh/α   predicted    -0.1257165E-02 ( -17.89%)
   displ. norm   :     0.0249188 α      lambda       -0.4233974E-03
   maximum displ.:     0.0137065 α      in ANC's #5, #8, #9, ...

........................................................................
.............................. CYCLE    5 ..............................
........................................................................
   1    -11.1622907 -0.111623E+02  0.213E-01    1.92       0.0  T
   2    -11.1593380  0.295269E-02  0.657E-01    2.00       1.0  T
   3    -11.1624815 -0.314349E-02  0.892E-02    1.94       1.0  T
   4    -11.1624800  0.151617E-05  0.279E-02    1.94       1.6  T
   5    -11.1624827 -0.276599E-05  0.105E-02    1.94       4.2  T
   6    -11.1624829 -0.129169E-06  0.746E-03    1.94       6.0  T
   7    -11.1624830 -0.142708E-06  0.461E-03    1.94       9.7  T
   8    -11.1624831 -0.937733E-07  0.270E-03    1.94      16.6  T
   9    -11.1624831 -0.237911E-07  0.119E-03    1.94      37.5  T
  10    -11.1624831 -0.639984E-08  0.565E-04    1.94      79.2  T
  11    -11.1624831 -0.117917E-08  0.263E-04    1.94     169.8  T
     SCC iter.                  ...        0 min,  0.001 sec
     gradient                   ...        0 min,  0.002 sec
 * total energy  :   -11.0288991 Eh     change       -0.2496440E-03 Eh
   gradient norm :     0.0044985 Eh/α   predicted    -0.2118312E-03 ( -15.15%)
   displ. norm   :     0.0077676 α      lambda       -0.3119082E-04
   maximum displ.:     0.0056057 α      in ANC's #5, #9, #2, ...

........................................................................
.............................. CYCLE    6 ..............................
........................................................................
   1    -11.1619882 -0.111620E+02  0.680E-02    1.95       0.0  T
   2    -11.1619482  0.400010E-04  0.853E-02    1.96       1.0  T
   3    -11.1619844 -0.361475E-04  0.440E-02    1.95       1.0  T
   4    -11.1619937 -0.928648E-05  0.392E-03    1.95      11.4  T
   5    -11.1619937 -0.121395E-07  0.263E-03    1.95      17.0  T
   6    -11.1619937 -0.214826E-07  0.674E-04    1.95      66.4  T
   7    -11.1619937  0.387774E-08  0.858E-04    1.95      52.1  T
     SCC iter.                  ...        0 min,  0.001 sec
     gradient                   ...        0 min,  0.001 sec
 * total energy  :   -11.0289185 Eh     change       -0.1934303E-04 Eh
   gradient norm :     0.0025007 Eh/α   predicted    -0.1559460E-04 ( -19.38%)
   displ. norm   :     0.0053577 α      lambda       -0.1075733E-04
   maximum displ.:     0.0038818 α      in ANC's #3, #9, #5, ...

........................................................................
.............................. CYCLE    7 ..............................
........................................................................
   1    -11.1618507 -0.111619E+02  0.680E-02    1.95       0.0  T
   2    -11.1618491  0.155592E-05  0.430E-02    1.96       1.0  T
   3    -11.1618041  0.450500E-04  0.760E-02    1.94       1.0  T
   4    -11.1618510 -0.469241E-04  0.255E-03    1.95      17.6  T
   5    -11.1618510 -0.638542E-09  0.167E-03    1.95      26.8  T
   6    -11.1618510  0.344106E-08  0.149E-03    1.95      29.9  T
   7    -11.1618510 -0.134056E-07  0.330E-04    1.95     135.6  T
   8    -11.1618510 -0.377449E-09  0.951E-05    1.95     470.2  T
     SCC iter.                  ...        0 min,  0.001 sec
     gradient                   ...        0 min,  0.001 sec
 * total energy  :   -11.0289299 Eh     change       -0.1141987E-04 Eh
   gradient norm :     0.0035682 Eh/α   predicted    -0.5379599E-05 ( -52.89%)
   displ. norm   :     0.0066506 α      lambda       -0.2107420E-04
   maximum displ.:     0.0063423 α      in ANC's #3, #2, #9, ...

........................................................................
.............................. CYCLE    8 ..............................
........................................................................
   1    -11.1617896 -0.111618E+02  0.106E-01    1.95       0.0  T
   2    -11.1617891  0.528984E-06  0.635E-02    1.95       1.0  T
   3    -11.1617547  0.343639E-04  0.654E-02    1.94       1.0  T
   4    -11.1617897 -0.350209E-04  0.580E-03    1.95       7.7  T
   5    -11.1617899 -0.143841E-06  0.214E-03    1.95      20.9  T
   6    -11.1617899  0.867559E-08  0.119E-03    1.95      37.7  T
   7    -11.1617899 -0.686477E-08  0.626E-04    1.95      71.5  T
   8    -11.1617899 -0.234282E-08  0.183E-04    1.95     244.5  T
     SCC iter.                  ...        0 min,  0.001 sec
     gradient                   ...        0 min,  0.001 sec
 * total energy  :   -11.0289600 Eh     change       -0.3009864E-04 Eh
   gradient norm :     0.0065831 Eh/α   predicted    -0.1053751E-04 ( -64.99%)
   displ. norm   :     0.0125064 α      lambda       -0.7361625E-04
   maximum displ.:     0.0119990 α      in ANC's #3, #2, #5, ...

........................................................................
.............................. CYCLE    9 ..............................
........................................................................
   1    -11.1617052 -0.111617E+02  0.210E-01    1.95       0.0  T
   2    -11.1617060 -0.706169E-06  0.122E-01    1.95       1.0  T
   3    -11.1616826  0.233264E-04  0.606E-02    1.94       1.0  T
   4    -11.1616988 -0.161587E-04  0.330E-02    1.95       1.4  T
   5    -11.1617071 -0.836254E-05  0.495E-03    1.95       9.0  T
   6    -11.1617071  0.946918E-08  0.156E-03    1.95      28.7  T
   7    -11.1617071  0.380975E-08  0.158E-03    1.95      28.3  T
   8    -11.1617072 -0.170347E-07  0.370E-04    1.95     120.9  T
   9    -11.1617071  0.112913E-08  0.435E-04    1.95     102.8  T
     SCC iter.                  ...        0 min,  0.001 sec
     gradient                   ...        0 min,  0.001 sec
 * total energy  :   -11.0290661 Eh     change       -0.1061271E-03 Eh
   gradient norm :     0.0122993 Eh/α   predicted    -0.3681279E-04 ( -65.31%)
   displ. norm   :     0.0236895 α      lambda       -0.2599767E-03
   maximum displ.:     0.0225388 α      in ANC's #3, #2, #5, ...

........................................................................
.............................. CYCLE   10 ..............................
........................................................................
   1    -11.1616932 -0.111617E+02  0.427E-01    1.93       0.0  T
   2    -11.1616881  0.512828E-05  0.223E-01    1.92       1.0  T
   3    -11.1612703  0.417805E-03  0.257E-01    1.96       1.0  T
   4    -11.1616786 -0.408317E-03  0.773E-02    1.92       1.0  T
   5    -11.1617164 -0.377406E-04  0.116E-02    1.93       3.8  T
   6    -11.1617166 -0.226784E-06  0.479E-03    1.93       9.3  T
   7    -11.1617166  0.232514E-08  0.109E-03    1.93      41.2  T
   8    -11.1617166 -0.998261E-09  0.906E-04    1.93      49.4  T
   9    -11.1617166 -0.394641E-08  0.663E-05    1.93     674.2  T
     SCC iter.                  ...        0 min,  0.001 sec
     gradient                   ...        0 min,  0.001 sec
 * total energy  :   -11.0294321 Eh     change       -0.3659634E-03 Eh
   gradient norm :     0.0219052 Eh/α   predicted    -0.1300630E-03 ( -64.46%)
   displ. norm   :     0.0425893 α      lambda       -0.8299748E-03
   maximum displ.:     0.0398774 α      in ANC's #3, #2, #5, ...

........................................................................
.............................. CYCLE   11 ..............................
........................................................................
   1    -11.1619134 -0.111619E+02  0.771E-01    1.87       0.0  T
   2    -11.1615461  0.367279E-03  0.367E-01    1.81       1.0  T
   3    -11.1603169  0.122924E-02  0.638E-01    1.91       1.0  T
   4    -11.1621614 -0.184454E-02  0.995E-02    1.84       1.0  T
   5    -11.1622071 -0.456632E-04  0.288E-02    1.85       1.6  T
   6    -11.1622093 -0.219161E-05  0.195E-02    1.85       2.3  T
   7    -11.1622103 -0.960975E-06  0.154E-03    1.85      29.1  T
   8    -11.1622102  0.174275E-07  0.186E-03    1.85      24.1  T
   9    -11.1622103 -0.235059E-07  0.326E-04    1.85     137.3  T
  10    -11.1622103  0.317879E-10  0.164E-04    1.85     273.2  T
     SCC iter.                  ...        0 min,  0.001 sec
     gradient                   ...        0 min,  0.001 sec
 * total energy  :   -11.0304812 Eh     change       -0.1049125E-02 Eh
   gradient norm :     0.0324499 Eh/α   predicted    -0.4157410E-03 ( -60.37%)
   displ. norm   :     0.0602651 α      lambda       -0.1742349E-02
   maximum displ.:     0.0563706 α      in ANC's #3, #2, #9, ...

........................................................................
.............................. CYCLE   12 ..............................
........................................................................
   1    -11.1627680 -0.111628E+02  0.903E-01    1.72       0.0  T
   2    -11.1613602  0.140782E-02  0.568E-01    1.63       1.0  T
   3    -11.1615844 -0.224188E-03  0.686E-01    1.76       1.0  T
   4    -11.1635720 -0.198766E-02  0.765E-02    1.69       1.0  T
   5    -11.1635960 -0.239981E-04  0.231E-02    1.70       1.9  T
   6    -11.1635973 -0.122312E-05  0.843E-03    1.70       5.3  T
   7    -11.1635973 -0.353349E-08  0.212E-03    1.70      21.1  T
   8    -11.1635973 -0.324478E-08  0.176E-03    1.70      25.4  T
   9    -11.1635973 -0.157693E-07  0.127E-04    1.70     351.8  T
  10    -11.1635973  0.299387E-10  0.105E-04    1.70     426.8  T
     SCC iter.                  ...        0 min,  0.001 sec
     gradient                   ...        0 min,  0.001 sec
 * total energy  :   -11.0322968 Eh     change       -0.1815565E-02 Eh
   gradient norm :     0.0355210 Eh/α   predicted    -0.8743399E-03 ( -51.84%)
   displ. norm   :     0.0587435 α      lambda       -0.1881398E-02
   maximum displ.:     0.0557578 α      in ANC's #3, #2, #8, ...

........................................................................
.............................. CYCLE   13 ..............................
........................................................................
   1    -11.1649921 -0.111650E+02  0.704E-01    1.54       0.0  T
   2    -11.1639999  0.992205E-03  0.490E-01    1.47       1.0  T
   3    -11.1644123 -0.412395E-03  0.500E-01    1.56       1.0  T
   4    -11.1655339 -0.112158E-02  0.472E-02    1.52       1.0  T
   5    -11.1655431 -0.921544E-05  0.141E-02    1.52       3.2  T
   6    -11.1655435 -0.377254E-06  0.429E-03    1.52      10.4  T
   7    -11.1655435  0.342304E-07  0.364E-03    1.52      12.3  T
   8    -11.1655436 -0.881988E-07  0.932E-04    1.52      48.0  T
   9    -11.1655436 -0.375728E-09  0.301E-04    1.52     148.5  T
     SCC iter.                  ...        0 min,  0.001 sec
     gradient                   ...        0 min,  0.001 sec
 * total energy  :   -11.0340599 Eh     change       -0.1763123E-02 Eh
   gradient norm :     0.0313890 Eh/α   predicted    -0.9439441E-03 ( -46.46%)
   displ. norm   :     0.3131597 α      lambda       -0.8943619E-02
   maximum displ.:     0.2949362 α      in ANC's #3, #2, #8, ...

........................................................................
.............................. CYCLE   14 ..............................
........................................................................
   1    -11.1690257 -0.111690E+02  0.260E+00    0.47       0.0  T
   2    -11.1649189  0.410677E-02  0.166E+00    0.37       1.0  T
   3    -11.1527993  0.121197E-01  0.175E+00    0.53       1.0  T
   4    -11.1722728 -0.194735E-01  0.813E-02    0.43       1.0  T
   5    -11.1722884 -0.156273E-04  0.425E-02    0.44       1.1  T
   6    -11.1722890 -0.582732E-06  0.289E-02    0.44       1.5  T
   7    -11.1722807  0.830274E-05  0.371E-02    0.44       1.2  T
   8    -11.1722899 -0.920920E-05  0.333E-03    0.44      13.4  T
   9    -11.1722898  0.712382E-07  0.395E-03    0.44      11.3  T
  10    -11.1722899 -0.935664E-07  0.295E-04    0.44     151.6  T
  11    -11.1722899 -0.569234E-10  0.131E-04    0.44     341.3  T
     SCC iter.                  ...        0 min,  0.001 sec
     gradient                   ...        0 min,  0.001 sec
 * total energy  :   -11.0355517 Eh     change       -0.1491782E-02 Eh
   gradient norm :     0.0279258 Eh/α   predicted    -0.4910351E-02 ( 229.16%)
   displ. norm   :     0.1295549 α      lambda       -0.2954718E-02
   maximum displ.:     0.1248104 α      in ANC's #3, #2, #8, ...

........................................................................
.............................. CYCLE   15 ..............................
........................................................................
   1    -11.1709048 -0.111709E+02  0.103E+00    0.90       0.0  T
   2    -11.1705568  0.348060E-03  0.616E-01    0.94       1.0  T
   3    -11.1675013  0.305551E-02  0.724E-01    0.86       1.0  T
   4    -11.1711496 -0.364837E-02  0.177E-02    0.92       2.5  T
   5    -11.1711492  0.402594E-06  0.124E-02    0.92       3.6  T
   6    -11.1711482  0.998211E-06  0.146E-02    0.92       3.1  T
   7    -11.1711497 -0.146553E-05  0.105E-03    0.92      42.5  T
   8    -11.1711497  0.772721E-08  0.123E-03    0.92      36.3  T
   9    -11.1711497 -0.955549E-08  0.215E-04    0.92     208.0  T
  10    -11.1711497 -0.181528E-09  0.631E-05    0.92     708.8  T
     SCC iter.                  ...        0 min,  0.001 sec
     gradient                   ...        0 min,  0.001 sec
 * total energy  :   -11.0369498 Eh     change       -0.1398141E-02 Eh
   gradient norm :     0.0037142 Eh/α   predicted    -0.1502157E-02 (   7.44%)
   displ. norm   :     0.0074667 α      lambda       -0.2051497E-04
   maximum displ.:     0.0048474 α      in ANC's #3, #8, #2, ...

........................................................................
.............................. CYCLE   16 ..............................
........................................................................
   1    -11.1716043 -0.111716E+02  0.630E-02    0.90       0.0  T
   2    -11.1716006  0.370714E-05  0.442E-02    0.89       1.0  T
   3    -11.1715984  0.218633E-05  0.397E-02    0.90       1.1  T
   4    -11.1716071 -0.865817E-05  0.644E-03    0.89       6.9  T
   5    -11.1716072 -0.178255E-06  0.150E-03    0.89      29.8  T
   6    -11.1716072 -0.277582E-08  0.282E-04    0.89     158.6  T
   7    -11.1716072  0.632383E-12  0.256E-04    0.89     174.5  T
     SCC iter.                  ...        0 min,  0.001 sec
     gradient                   ...        0 min,  0.001 sec
 * total energy  :   -11.0369624 Eh     change       -0.1252698E-04 Eh
   gradient norm :     0.0013185 Eh/α   predicted    -0.1025713E-04 ( -18.12%)
   displ. norm   :     0.0038024 α      lambda       -0.2537075E-05
   maximum displ.:     0.0028060 α      in ANC's #2, #8, #5, ...

........................................................................
.............................. CYCLE   17 ..............................
........................................................................
   1    -11.1718082 -0.111718E+02  0.265E-02    0.89       0.0  T
   2    -11.1718078  0.408832E-06  0.193E-02    0.88       2.3  T
   3    -11.1718078  0.378142E-07  0.148E-02    0.89       3.0  T
   4    -11.1718086 -0.856998E-06  0.603E-03    0.89       7.4  T
   5    -11.1718089 -0.220430E-06  0.880E-04    0.89      50.8  T
   6    -11.1718089  0.297499E-08  0.932E-04    0.89      48.0  T
     SCC iter.                  ...        0 min,  0.001 sec
     gradient                   ...        0 min,  0.001 sec
 * total energy  :   -11.0369637 Eh     change       -0.1392876E-05 Eh
   gradient norm :     0.0003862 Eh/α   predicted    -0.1270050E-05 (  -8.82%)
   displ. norm   :     0.0011326 α      lambda       -0.2405589E-06
   maximum displ.:     0.0006622 α      in ANC's #3, #5, #8, ...

   *** GEOMETRY OPTIMIZATION CONVERGED AFTER 17 ITERATIONS ***

------------------------------------------------------------------------
 total energy gain   :        -0.0652776 Eh      -40.9623 kcal/mol
 total RMSD          :         0.2724091 a0        0.1442 Å
 total power (kW/mol):       -10.0815450 (step)-2546.1382 (real)
------------------------------------------------------------------------

 ANCopt (total)                0 d,  0 h,  0 min,  0.067 sec
 optimizer setup                ...        0 min,  0.000 sec (  0.089%)
 model hessian                  ...        0 min,  0.000 sec (  0.126%)
 ANC generation                 ...        0 min,  0.000 sec (  0.073%)
 coordinate transformation      ...        0 min,  0.000 sec (  0.058%)
 single point calculation       ...        0 min,  0.066 sec ( 97.797%)
 optimization log               ...        0 min,  0.000 sec (  0.576%)
 hessian update                 ...        0 min,  0.000 sec (  0.053%)
 rational function              ...        0 min,  0.000 sec (  0.534%)

================
 final structure:
================
5
 xtb: 6.2.2 (9d81278992624c895f80dd42a50cac0aa55982e2)
N         1.26868849052886   -0.01315402677912    0.00333654652536
C         0.22519279636432   -0.71844000873174   -0.46401248758294
C        -0.86994258342187   -0.21427363899756    0.67379146323890
C        -0.86155553170570    0.23235919467670   -0.67846788807842
C         0.23761582823439    0.71350947983172    0.46535136589710

 Bond Distances (Angstroems)
 ---------------------------
N1-C2=1.3434         N1-C5=1.3434         C2-N1=1.3434         C2-C3=1.6577         C2-C4=1.4598         C2-C5=1.7071         
C3-C2=1.6577         C3-C4=1.4241         C3-C5=1.4598         C4-C2=1.4598         C4-C3=1.4241         C4-C5=1.6577         
C5-N1=1.3434         C5-C2=1.7071         C5-C3=1.4598         C5-C4=1.6577         
 C  C  Rav=1.5611 sigma=0.1150  Rmin=1.4241  Rmax=1.7071     6
 N  C  Rav=1.3434 sigma=0.0000  Rmin=1.3434  Rmax=1.3434     2

 selected bond angles (degree)
 --------------------
C5-N1-C2= 78.90                C3-C2-N1= 96.59                C4-C2-N1=106.70                C4-C2-C3= 53.91                
C5-C2-N1= 50.55                C5-C2-C3= 51.40                C5-C2-C4= 62.55                C4-C3-C2= 55.93                
C5-C3-C2= 66.05                C5-C3-C4= 70.16                C3-C4-C2= 70.16                C5-C4-C2= 66.05                
C5-C4-C3= 55.93                C2-C5-N1= 50.55                C3-C5-N1=106.72                C3-C5-C2= 62.55                
C4-C5-N1= 96.58                C4-C5-C2= 51.40                C4-C5-C3= 53.91                

 selected dihedral angles (degree)
 ---------------------------------
C3-C2-N1-C5=335.29            C4-C2-N1-C5= 29.52            C4-C3-C2-N1=105.89            C4-C3-C2-C5= 81.50            
C5-C3-C2-N1= 24.40            C5-C3-C2-C4=278.50            C3-C4-C2-N1=274.05            C3-C4-C2-C5=299.44            
C5-C4-C2-N1=334.61            C5-C4-C2-C3= 60.56            C2-C4-C3-C5= 73.92            C5-C4-C3-C2=286.08            
C3-C5-N1-C2= 29.50            C4-C5-N1-C2=335.27            N1-C5-C2-C3=147.90            N1-C5-C2-C4=212.13            
C3-C5-C2-N1=212.10            C3-C5-C2-C4= 64.23            C4-C5-C2-N1=147.87            C4-C5-C2-C3=295.77            
N1-C5-C3-C2=334.63            N1-C5-C3-C4=274.06            C2-C5-C3-C4=299.43            C4-C5-C3-C2= 60.57            
N1-C5-C4-C2= 24.42            N1-C5-C4-C3=105.92            C2-C5-C4-C3= 81.50            C3-C5-C4-C2=278.50            
           -------------------------------------------------
          |                Final Singlepoint                |
           -------------------------------------------------

          ...................................................
          :                      SETUP                      :
          :.................................................:
          :  # basis functions                  20          :
          :  # atomic orbitals                  20          :
          :  # shells                           10          :
          :  # electrons                        21          :
          :  max. iterations                   250          :
          :  Hamiltonian                  GFN2-xTB          :
          :  restarted?                      false          :
          :  GBSA solvation                  false          :
          :  PC potential                    false          :
          :  electronic temp.          300.0000000     K    :
          :  accuracy                    1.0000000          :
          :  -> integral cutoff          0.2500000E+02      :
          :  -> integral neglect         0.1000000E-07      :
          :  -> SCF convergence          0.1000000E-05 Eh   :
          :  -> wf. convergence          0.1000000E-03 e    :
          :  Broyden damping             0.4000000          :
          ...................................................

 iter      E             dE          RMSdq      gap      omega  full diag
   1    -11.1718089 -0.111718E+02  0.383E-04    0.89       0.0  T
   2    -11.1718089  0.716760E-11  0.247E-04    0.89     180.9  T
   3    -11.1718089  0.470367E-09  0.255E-04    0.89     175.3  T

   *** convergence criteria satisfied after 3 iterations ***

         #    Occupation            Energy/Eh            Energy/eV
      -------------------------------------------------------------
         1        2.0000           -0.7734332             -21.0462
       ...           ...                  ...                  ...
         5        2.0000           -0.5826140             -15.8537
         6        2.0000           -0.5545235             -15.0894
         7        2.0000           -0.5035995             -13.7036
         8        2.0000           -0.4943834             -13.4529
         9        2.0000           -0.4653279             -12.6622
        10        2.0000           -0.4538984             -12.3512
        11        1.0000           -0.4086082             -11.1188 (HOMO)
        12                         -0.3760357             -10.2325 (LUMO)
        13                         -0.3537063              -9.6248
        14                         -0.1955889              -5.3222
        15                         -0.1389521              -3.7811
        16                          0.0308135               0.8385
       ...                                ...                  ...
        20                          0.3222282               8.7683
      -------------------------------------------------------------
                  HL-Gap            0.0325724 Eh            0.8863 eV
             Fermi-level           -0.4117876 Eh          -11.2053 eV

 SCC (total)                   0 d,  0 h,  0 min,  0.003 sec
 SCC setup                      ...        0 min,  0.000 sec (  1.476%)
 Dispersion                     ...        0 min,  0.000 sec (  0.401%)
 integral evaluation            ...        0 min,  0.001 sec ( 41.221%)
 zeroth order Hamiltonian       ...        0 min,  0.000 sec (  0.504%)
 iterations                     ...        0 min,  0.000 sec ( 10.674%)
 molecular gradient             ...        0 min,  0.001 sec ( 44.114%)
 printout                       ...        0 min,  0.000 sec (  1.372%)

         :::::::::::::::::::::::::::::::::::::::::::::::::::::
         ::                     SUMMARY                     ::
         :::::::::::::::::::::::::::::::::::::::::::::::::::::
         :: total energy             -11.036963747438 Eh    ::
         :: gradient norm              0.000386031912 Eh/a0 ::
         :: HOMO-LUMO gap              0.886340918230 eV    ::
         ::.................................................::
         :: SCC energy               -11.171808865964 Eh    ::
         :: -> isotropic ES           -0.002234403455 Eh    ::
         :: -> anisotropic ES          0.003193644981 Eh    ::
         :: -> anisotropic XC          0.008427926628 Eh    ::
         :: -> dispersion             -0.002495102472 Eh    ::
         :: repulsion energy           0.134845099692 Eh    ::
         :: add. restraining           0.000000000000 Eh    ::
         :::::::::::::::::::::::::::::::::::::::::::::::::::::

           ------------------------------------------------- 
          |                Numerical Hessian                |
           ------------------------------------------------- 
step length          :   0.00500
SCC accuracy         :   0.30000
Hessian scale factor :   1.00000
frozen atoms in %    :   0.00000    0
RMS gradient         :   0.00039
estimated CPU  time      0.00 min
estimated wall time      0.00 min

writing file <hessian>.

 projected vibrational frequencies (cm-1)
eigval :       -0.00    -0.00     0.00     0.00     0.00     0.00
eigval :     -187.59   272.48   564.65   821.64   838.14   940.85
eigval :      972.30  1402.01  1459.04
           -------------------------------------------------
          |                Property Printout                |
           -------------------------------------------------

    * Orbital Energies and Occupations

         #    Occupation            Energy/Eh            Energy/eV
      -------------------------------------------------------------
         1        2.0000           -0.7734331             -21.0462
         2        2.0000           -0.6980831             -18.9958
         3        2.0000           -0.6454319             -17.5631
         4        2.0000           -0.6218322             -16.9209
         5        2.0000           -0.5826140             -15.8537
         6        2.0000           -0.5545237             -15.0894
         7        2.0000           -0.5035997             -13.7036
         8        2.0000           -0.4943832             -13.4529
         9        2.0000           -0.4653278             -12.6622
        10        2.0000           -0.4538985             -12.3512
        11        1.0000           -0.4086083             -11.1188 (HOMO)
        12                         -0.3760358             -10.2325 (LUMO)
        13                         -0.3537061              -9.6248
        14                         -0.1955890              -5.3222
        15                         -0.1389521              -3.7811
        16                          0.0308134               0.8385
        17                          0.1401222               3.8129
        18                          0.1592695               4.3339
        19                          0.3031332               8.2487
        20                          0.3222280               8.7683
      -------------------------------------------------------------
                  HL-Gap            0.0325725 Eh            0.8863 eV
             Fermi-level           -0.4117878 Eh          -11.2053 eV

     #   Z        covCN         q      C6AA      α(0)
     1   7 N      1.909    -0.114    24.253     7.302
     2   6 C      3.757     0.092    19.111     6.233
     3   6 C      2.950    -0.035    28.863     8.812
     4   6 C      2.950    -0.035    28.863     8.812
     5   6 C      3.757     0.092    19.110     6.233

 Mol. C6AA /au·bohr⁶  :        594.548837
 Mol. C8AA /au·bohr⁸  :      16327.623463
 Mol. α(0) /au        :         37.390250


Wiberg/Mayer (AO) data.
largest (>0.10) Wiberg bond orders for each atom
          total WBO             WBO to atom ...
     1  N   3.018        C    5 1.289    C    2 1.289    C    3 0.220    C    4 0.220
     2  C   3.438        N    1 1.289    C    4 1.002    C    5 0.579    C    3 0.567
     3  C   2.987        C    4 1.197    C    5 1.002    C    2 0.567    N    1 0.220
     4  C   2.987        C    3 1.197    C    2 1.002    C    5 0.567    N    1 0.220
     5  C   3.438        N    1 1.289    C    3 1.002    C    2 0.579    C    4 0.567

MOs/occ written to file <molden.input>


molecular dipole:
Molecule has the following symmetry elements: (C2) 
It seems to be the C2 point group
                 x           y           z       tot (Debye)
 q only:       -0.080       0.001      -0.000
   full:       -0.185       0.002      -0.000       0.470
molecular quadrupole (traceless):
                xx          xy          yy          xz          yz          zz
 q only:       -0.983       0.017       0.713       0.001       0.383       0.270
  q+dip:       -1.914       0.037       1.532      -0.008      -0.232       0.382
   full:       -2.441       0.046       2.040      -0.005       0.241       0.401

           -------------------------------------------------
          |                Geometry Summary                 |
           -------------------------------------------------

      molecular mass/u    :       62.0496468
   center of mass at/Å    :        0.0408100      -0.0004231       0.0001070
  moments of inertia/u·Å² :        0.2968158E+02   0.5201575E+02   0.6114015E+02
rotational constants/cm⁻¹ :        0.5679494E+00   0.3240871E+00   0.2757211E+00

 * 5 selected distances

     #   Z        #   Z                                     value/Å
     1   7 N      2   6 C                                 1.3434012
     2   6 C      4   6 C                                 1.4598055 (max)
     3   6 C      4   6 C                                 1.4241336
     1   7 N      5   6 C                                 1.3433571 (min)
     3   6 C      5   6 C                                 1.4597652

 * 2 distinct bonds (by element types)

   Z      Z             #   av. dist./Å        max./Å        min./Å
   6 C    6 C           3     1.4479014     1.4598055     1.4241336
   6 C    7 N           2     1.3433791     1.3434012     1.3433571

           -------------------------------------------------
          |               Frequency Printout                |
           -------------------------------------------------
 projected vibrational frequencies (cm-1)
eigval :       -0.00    -0.00     0.00     0.00     0.00     0.00
eigval :     -187.59   272.48   564.65   821.64   838.14   940.85
eigval :      972.30  1402.01  1459.04
 reduced masses (amu)
   1: 12.20   2: 13.04   3: 13.11   4: 12.21   5: 12.14   6: 12.22   7: 12.47   8: 12.28
   9: 12.06  10: 12.52  11: 12.83  12: 12.04  13: 12.03  14: 12.02  15: 12.98
 IR intensities (amu)
   1:  0.01   2:  0.04   3:  0.07   4:  0.06   5:  0.01   6:  0.06   7:  0.50   8:  0.81
   9:  0.15  10:  0.22  11:  1.51  12:  1.26  13:  0.49  14:  0.92  15:  0.77
 Raman intensities (amu)
   1:  0.00   2:  0.00   3:  0.00   4:  0.00   5:  0.00   6:  0.00   7:  0.00   8:  0.00
   9:  0.00  10:  0.00  11:  0.00  12:  0.00  13:  0.00  14:  0.00  15:  0.00
 output can be read by thermo (or use thermo option).
 writing <g98.out> molden fake output.
 recommended (thermochemical) frequency scaling factor: 1.0
           -------------------------------------------------
          |             Thermodynamic Functions             |
           -------------------------------------------------

c2  symmetry found (for desy threshold:  0.10E+00) used in thermo

          ...................................................
          :                      SETUP                      :
          :.................................................:
          :  # frequencies                           8      :
          :  # imaginary freq.                       1      :
          :  linear?                             false      :
          :  only rotor calc.                    false      :
          :  symmetry                               c2      :
          :  rotational number                       2      :
          :  scaling factor                  1.0000000      :
          :  rotor cutoff                   50.0000000 cm⁻¹ :
          :  imag. cutoff                  -20.0000000 cm⁻¹ :
          :.................................................:

    mode    ω/cm⁻¹     T·S(HO)/kcal·mol⁻¹    T·S(FR)/kcal·mol⁻¹   T·S(vib)
   ------------------------------------------------------------------------
       1    272.48    -0.00000 ( 99.89%)     0.01516 (  0.11%)     0.00002
   ------------------------------------------------------------------------

   temp. (K)  partition function   enthalpy   heat capacity  entropy
                                   cal/mol     cal/K/mol   cal/K/mol   J/K/mol
 298.15  VIB   1.55                  550.397      5.084      2.719
         ROT  0.117E+05              888.752      2.981     21.602
         INT  0.182E+05             1439.150      8.065     24.322
         TR   0.473E+27             1481.254      4.968     38.278
         TOT                        2920.4037    13.0332    62.5996   261.9167

   temp. (K)  partition function   enthalpy   heat capacity  entropy
                                   cal/mol     cal/K/mol   cal/K/mol   J/K/mol
 120.00  VIB   1.04                   33.016      1.003      0.356
         ROT  0.300E+04              357.707      2.981     18.889
         INT  0.312E+04              390.723      3.984     19.245
         TR   0.121E+27              596.178      4.968     33.759
         TOT                         986.9011     8.9521    53.0036   221.7671

   temp. (K)  partition function   enthalpy   heat capacity  entropy
                                   cal/mol     cal/K/mol   cal/K/mol   J/K/mol
 100.00  VIB   1.02                   16.280      0.674      0.204
         ROT  0.228E+04              298.089      2.981     18.346
         INT  0.233E+04              314.369      3.655     18.550
         TR   0.919E+26              496.815      4.968     32.853
         TOT                         811.1836     8.6230    51.4030   215.0704

   temp. (K)  partition function   enthalpy   heat capacity  entropy
                                   cal/mol     cal/K/mol   cal/K/mol   J/K/mol
  80.00  VIB   1.01                    5.906      0.369      0.089
         ROT  0.163E+04              238.471      2.981     17.681
         INT  0.164E+04              244.378      3.350     17.770
         TR   0.657E+26              397.452      4.968     31.745
         TOT                         641.8297     8.3179    49.5152   207.1716

   temp. (K)  partition function   enthalpy   heat capacity  entropy
                                   cal/mol     cal/K/mol   cal/K/mol   J/K/mol
  60.00  VIB   1.00                    1.136      0.124      0.022
         ROT  0.106E+04              178.853      2.981     16.823
         INT  0.106E+04              179.989      3.105     16.845
         TR   0.427E+26              298.089      4.968     30.317
         TOT                         478.0783     8.0732    47.1619   197.3253

   temp. (K)  partition function   enthalpy   heat capacity  entropy
                                   cal/mol     cal/K/mol   cal/K/mol   J/K/mol
  40.00  VIB   1.00                    0.043      0.011      0.001
         ROT   577.                  119.236      2.981     15.614
         INT   577.                  119.279      2.991     15.615
         TR   0.232E+26              198.726      4.968     28.303
         TOT                         318.0048     7.9596    43.9187   183.7558

   temp. (K)  partition function   enthalpy   heat capacity  entropy
                                   cal/mol     cal/K/mol   cal/K/mol   J/K/mol
  20.00  VIB   1.00                    0.000      0.000     -0.001
         ROT   204.                   59.618      2.981     13.548
         INT   204.                   59.618      2.981     13.547
         TR   0.822E+25               99.363      4.968     24.861
         TOT                         158.9808     7.9490    38.4085   160.7011

   temp. (K)  partition function   enthalpy   heat capacity  entropy
                                   cal/mol     cal/K/mol   cal/K/mol   J/K/mol
  10.00  VIB   1.00                    0.000      0.000     -0.002
         ROT   72.1                   29.809      2.981     11.482
         INT   72.1                   29.809      2.981     11.480
         TR   0.290E+25               49.681      4.968     21.419
         TOT                          79.4904     7.9490    32.8995   137.6513

       T/K    H(0)-H(T)+PV         H(T)/Eh          T*S/Eh         G(T)/Eh
   ------------------------------------------------------------------------
    298.15    0.465396E-02    0.212188E-01    0.297431E-01   -0.852431E-02
    120.00    0.157273E-02    0.181375E-01    0.101360E-01    0.800155E-02
    100.00    0.129270E-02    0.178575E-01    0.819160E-02    0.966593E-02
     80.00    0.102282E-02    0.175876E-01    0.631260E-02    0.112750E-01
     60.00    0.761866E-03    0.173267E-01    0.450943E-02    0.128173E-01
     40.00    0.506773E-03    0.170716E-01    0.279956E-02    0.142720E-01
     20.00    0.253352E-03    0.168182E-01    0.122416E-02    0.155940E-01
     10.00    0.126676E-03    0.166915E-01    0.524286E-03    0.161672E-01 (used)
   ------------------------------------------------------------------------

         :::::::::::::::::::::::::::::::::::::::::::::::::::::
         ::                  THERMODYNAMIC                  ::
         :::::::::::::::::::::::::::::::::::::::::::::::::::::
         :: total free energy         -11.020796535442 Eh   ::
         ::.................................................::
         :: total energy              -11.036963747125 Eh   ::
         :: zero point energy           0.016564821951 Eh   ::
         :: G(RRHO) w/o ZPVE           -0.000397610269 Eh   ::
         :: G(RRHO) contrib.            0.016167211683 Eh   ::
         :::::::::::::::::::::::::::::::::::::::::::::::::::::
imag cut-off (cm-1) :    5.00
 found            1  significant imaginary frequency
 writing imag mode distorted coords to xtbhess.xyz
 for further optimization.

optimized geometry written to: xtbopt.xyz


           -------------------------------------------------
          | TOTAL ENERGY              -11.036963747125 Eh   |
          | TOTAL ENTHALPY            -11.020272249158 Eh   |
          | TOTAL FREE ENERGY         -11.020796535442 Eh   |
          | GRADIENT NORM               0.000385548022 Eh/α |
          | HOMO-LUMO GAP               0.886343214825 eV   |
           -------------------------------------------------

------------------------------------------------------------------------
 * finished run on 2020/05/12 at 11:44:21.788     
------------------------------------------------------------------------
 total:
 * wall-time:     0 d,  0 h,  0 min,  0.200 sec
 *  cpu-time:     0 d,  0 h,  0 min,  0.199 sec
 * ratio c/w:     0.998 speedup
 SCF:
 * wall-time:     0 d,  0 h,  0 min,  0.005 sec
 *  cpu-time:     0 d,  0 h,  0 min,  0.005 sec
 * ratio c/w:     1.000 speedup
 ANC optimizer:
 * wall-time:     0 d,  0 h,  0 min,  0.071 sec
 *  cpu-time:     0 d,  0 h,  0 min,  0.071 sec
 * ratio c/w:     0.999 speedup
 numerical hessian:
 * wall-time:     0 d,  0 h,  0 min,  0.108 sec
 *  cpu-time:     0 d,  0 h,  0 min,  0.108 sec
 * ratio c/w:     0.997 speedup

