      -----------------------------------------------------------      
     |                   =====================                   |     
     |                           x T B                           |     
     |                   =====================                   |     
     |                         S. Grimme                         |     
     |          Mulliken Center for Theoretical Chemistry        |     
     |                    University of Bonn                     |     
      -----------------------------------------------------------      

   * xtb version 6.2.2 (9d81278992624c895f80dd42a50cac0aa55982e2) compiled by '@Darwin' on 04/03/2020

   xtb is free software: you can redistribute it and/or modify it under
   the terms of the GNU Lesser General Public License as published by
   the Free Software Foundation, either version 3 of the License, or
   (at your option) any later version.
   
   xtb is distributed in the hope that it will be useful,
   but WITHOUT ANY WARRANTY; without even the implied warranty of
   MERCHANTABILITY or FITNESS FOR A PARTICULAR PURPOSE.  See the
   GNU Lesser General Public License for more details.
   
   Cite this work as:
   * S. Grimme, C. Bannwarth, P. Shushkov, J. Chem. Theory Comput., 2017,
     13, 1989-2009. DOI: 10.1021/acs.jctc.7b00118
   * C. Bannwarth, S. Ehlert and S. Grimme., J. Chem. Theory Comput., 2019,
     15, 1652-1671. DOI: 10.1021/acs.jctc.8b01176
   * P. Pracht, E. Caldeweyher, S. Ehlert, S. Grimme, ChemRxiv, 2019, preprint.
     DOI: 10.26434/chemrxiv.8326202.v1
   
   for DFT-D4:
   * E. Caldeweyher, C. Bannwarth and S. Grimme, J. Chem. Phys., 2017,
     147, 034112. DOI: 10.1063/1.4993215
   * E. Caldeweyher, S. Ehlert, A. Hansen, H. Neugebauer, S. Spicher,
     C. Bannwarth and S. Grimme, J. Chem. Phys., 2019, 150, 154122.
     DOI: 10.1063/1.5090222
   
   for sTDA-xTB:
   * S. Grimme and C. Bannwarth, J. Chem. Phys., 2016, 145, 054103.
     DOI: 10.1063/1.4959605
   
   in the mass-spec context:
   * V. Asgeirsson, C. Bauer and S. Grimme, Chem. Sci., 2017, 8, 4879.
     DOI: 10.1039/c7sc00601b
   
   for metadynamics refer to:
   * S. Grimme, J. Chem. Theory Comput., 2019, 155, 2847-2862
     DOI: 10.1021/acs.jctc.9b00143
   
   with help from (in alphabetical order)
   C. Bannwarth, F. Bohle, G. Brandenburg, E. Caldeweyher, M. Checinski,
   S. Dohm, S. Ehlert, S. Ehrlich, F. März, H. Neugebauer, J. Pisarek,
   P. Pracht, P. Shushkov, and S. Spicher.
   
 * started run on 2020/05/12 at 11:45:17.542     

           -------------------------------------------------
          |                Calculation Setup                |
           -------------------------------------------------

          program call               : xtb --input C3O1_1_S_0.input C3O1_1_S_0.xyz --ohess --molden --namespace C3O1_1_S_0 output.out
          calculation namespace      : C3O1_1_S_0
          coordinate file            : C3O1_1_S_0.xyz
          number of atoms            :                     4
          number of electrons        :                    18
          charge                     :                     0
          spin                       :                   0.0
          first test random number   :      0.37658335047643

   ID    Z sym.   atoms
    1    6 C      1-3
    2    8 O      4

           -------------------------------------------------
          |                 G F N 2 - x T B                 |
           -------------------------------------------------

        Reference                      10.1021/acs.jctc.8b01176
      * Hamiltonian:
        H0-scaling (s, p, d)           1.850000    2.230000    2.230000
        zeta-weighting                 0.500000
      * Dispersion:
        s8                             2.700000
        a1                             0.520000
        a2                             5.000000
        s9                             5.000000
      * Repulsion:
        kExp                           1.500000    1.000000
        rExp                           1.000000
      * Coulomb:
        alpha                          2.000000
        third order                    shell-resolved
        anisotropic                    true
        a3                             3.000000
        a5                             4.000000
        cn-shift                       1.200000
        cn-exp                         4.000000
        max-rad                        5.000000


          ...................................................
          :                      SETUP                      :
          :.................................................:
          :  # basis functions                  16          :
          :  # atomic orbitals                  16          :
          :  # shells                            8          :
          :  # electrons                        18          :
          :  max. iterations                   250          :
          :  Hamiltonian                  GFN2-xTB          :
          :  restarted?                      false          :
          :  GBSA solvation                  false          :
          :  PC potential                    false          :
          :  electronic temp.          300.0000000     K    :
          :  accuracy                    1.0000000          :
          :  -> integral cutoff          0.2500000E+02      :
          :  -> integral neglect         0.1000000E-07      :
          :  -> SCF convergence          0.1000000E-05 Eh   :
          :  -> wf. convergence          0.1000000E-03 e    :
          :  Broyden damping             0.4000000          :
          ...................................................

 iter      E             dE          RMSdq      gap      omega  full diag
   1    -10.0004855 -0.100005E+02  0.116E+01    0.92       0.0  T
   2     -9.5082069  0.492279E+00  0.120E+01    0.32       1.0  T
   3     -9.8554180 -0.347211E+00  0.691E+00    1.38       1.0  T
   4     -9.3638934  0.491525E+00  0.973E+00    0.58       1.0  T
   5     -9.9087076 -0.544814E+00  0.521E+00    1.07       1.0  T
   6    -10.0695480 -0.160840E+00  0.297E+00    0.89       1.0  T
   7    -10.0857294 -0.161814E-01  0.225E+00    0.81       1.0  T
   8    -10.0960589 -0.103295E-01  0.149E+00    0.75       1.0  T
   9    -10.0992331 -0.317423E-02  0.124E+00    0.57       1.0  T
  10    -10.1042136 -0.498046E-02  0.763E-01    0.59       1.0  T
  11    -10.1072949 -0.308127E-02  0.468E-02    0.62       1.1  T
  12    -10.1073006 -0.576600E-05  0.328E-02    0.62       1.5  T
  13    -10.1073014 -0.802850E-06  0.129E-02    0.62       3.9  T
  14    -10.1073019 -0.478861E-06  0.932E-03    0.62       5.4  T
  15    -10.1073023 -0.377543E-06  0.370E-03    0.62      13.5  T
  16    -10.1073023  0.416613E-09  0.288E-03    0.62      17.4  T
  17    -10.1073023 -0.395348E-07  0.939E-04    0.62      53.3  T
  18    -10.1073023 -0.358805E-08  0.106E-04    0.62     471.6  T

   *** convergence criteria satisfied after 18 iterations ***

         #    Occupation            Energy/Eh            Energy/eV
      -------------------------------------------------------------
         1        2.0000           -0.7559104             -20.5694
       ...           ...                  ...                  ...
         3        2.0000           -0.6517028             -17.7337
         4        2.0000           -0.6069114             -16.5149
         5        2.0000           -0.5729337             -15.5903
         6        2.0000           -0.5620185             -15.2933
         7        2.0000           -0.5239711             -14.2580
         8        2.0000           -0.4706524             -12.8071
         9        2.0000           -0.4631685             -12.6035 (HOMO)
        10        0.0000           -0.4402699             -11.9804 (LUMO)
        11                         -0.3813521             -10.3771
        12                         -0.3647357              -9.9250
        13                         -0.3243136              -8.8250
        14                          0.0478347               1.3016
       ...                                ...                  ...
        16                          0.0807363               2.1969
      -------------------------------------------------------------
                  HL-Gap            0.0228986 Eh            0.6231 eV
             Fermi-level           -0.4517190 Eh          -12.2919 eV

 SCC (total)                   0 d,  0 h,  0 min,  0.004 sec
 SCC setup                      ...        0 min,  0.000 sec (  2.308%)
 Dispersion                     ...        0 min,  0.000 sec (  0.384%)
 integral evaluation            ...        0 min,  0.001 sec ( 26.065%)
 zeroth order Hamiltonian       ...        0 min,  0.000 sec (  0.458%)
 iterations                     ...        0 min,  0.002 sec ( 43.625%)
 molecular gradient             ...        0 min,  0.001 sec ( 24.714%)
 printout                       ...        0 min,  0.000 sec (  2.182%)

         :::::::::::::::::::::::::::::::::::::::::::::::::::::
         ::                     SUMMARY                     ::
         :::::::::::::::::::::::::::::::::::::::::::::::::::::
         :: total energy             -10.069853709303 Eh    ::
         :: gradient norm              0.402415997470 Eh/a0 ::
         :: HOMO-LUMO gap              0.623103850056 eV    ::
         ::.................................................::
         :: SCC energy               -10.107302331392 Eh    ::
         :: -> isotropic ES            0.000557713262 Eh    ::
         :: -> anisotropic ES         -0.000911747580 Eh    ::
         :: -> anisotropic XC          0.005502894858 Eh    ::
         :: -> dispersion             -0.001697827845 Eh    ::
         :: repulsion energy           0.037448591675 Eh    ::
         :: add. restraining           0.000000000000 Eh    ::
         :::::::::::::::::::::::::::::::::::::::::::::::::::::

      ----------------------------------------------------------- 
     |                   =====================                   |
     |                        A N C O P T                        |
     |                   =====================                   |
     |               Approximate Normal Coordinate               |
     |                Rational Function Optimizer                |
      ----------------------------------------------------------- 

          ...................................................
          :                      SETUP                      :
          :.................................................:
          :   optimization level            normal          :
          :   max. optcycles                   200          :
          :   ANC micro-cycles                  20          :
          :   degrees of freedom                 6          :
          :.................................................:
          :   RF solver                   davidson          :
          :   write xtbopt.log                true          :
          :   linear?                        false          :
          :   energy convergence         0.5000000E-05 Eh   :
          :   grad. convergence          0.1000000E-02 Eh/α :
          :   maximium RF displ.         1.0000000          :
          :   Hlow (freq-cutoff)         0.1000000E-01      :
          :   Hmax (freq-cutoff)         5.0000000          :
          :   S6 in model hess.         20.0000000          :
          ...................................................

generating ANC from model Hessian ...
Using Lindh-Hessian (1995)
 Shifting diagonal of input Hessian by    4.4001106157239012E-004
 Lowest  eigenvalues of input Hessian
   -0.000000   -0.000000   -0.000000   -0.000000    0.000000    0.000000
    0.010000    0.057586    0.122579    0.674523    0.922187    1.227288
 Highest eigenvalues
    0.010000    0.057586    0.122579    0.674523    0.922187    1.227288


........................................................................
.............................. CYCLE    1 ..............................
........................................................................
   1    -10.1073023 -0.101073E+02  0.195E-05    0.62       0.0  T
   2    -10.1073023  0.941291E-11  0.397E-05    0.62    1259.3  T
   3    -10.1073023 -0.631317E-11  0.270E-05    0.62    1853.2  T
     SCC iter.                  ...        0 min,  0.001 sec
     gradient                   ...        0 min,  0.001 sec
 * total energy  :   -10.0698537 Eh     change       -0.3150102E-09 Eh
   gradient norm :     0.4024154 Eh/α   predicted     0.0000000E+00 (-100.00%)
   displ. norm   :     0.4832625 α      lambda       -0.1769756E+00
   maximum displ.:     0.3761163 α      in ANC's #4, #3, #6, ...

........................................................................
.............................. CYCLE    2 ..............................
........................................................................
   1    -10.2624931 -0.102625E+02  0.404E+00    1.93       0.0  T
   2     -9.7747878  0.487705E+00  0.826E+00    1.24       1.0  T
   3    -10.2993703 -0.524582E+00  0.211E+00    1.78       1.0  T
   4    -10.3136423 -0.142720E-01  0.103E+00    1.59       1.0  T
   5    -10.3165371 -0.289484E-02  0.259E-01    1.61       1.0  T
   6    -10.3165113  0.258612E-04  0.140E-01    1.62       1.0  T
   7    -10.3165377 -0.264266E-04  0.912E-02    1.61       1.0  T
   8    -10.3165825 -0.448411E-04  0.225E-02    1.61       2.2  T
   9    -10.3165842 -0.169075E-05  0.470E-03    1.61      10.6  T
  10    -10.3165843 -0.563567E-07  0.577E-04    1.61      86.7  T
  11    -10.3165843 -0.426491E-09  0.282E-04    1.61     177.5  T
     SCC iter.                  ...        0 min,  0.001 sec
     gradient                   ...        0 min,  0.001 sec
 * total energy  :   -10.2170284 Eh     change       -0.1471747E+00 Eh
   gradient norm :     0.2574763 Eh/α   predicted    -0.1091535E+00 ( -25.83%)
   displ. norm   :     0.5404825 α      lambda       -0.1353151E+00
   maximum displ.:     0.4658275 α      in ANC's #4, #6, #2, ...

........................................................................
.............................. CYCLE    3 ..............................
........................................................................
   1    -10.4797666 -0.104798E+02  0.474E+00    3.63       0.0  T
   2    -10.3246055  0.155161E+00  0.587E+00    2.01       1.0  T
   3    -10.5391851 -0.214580E+00  0.213E+00    3.03       1.0  T
   4    -10.5537035 -0.145185E-01  0.667E-01    2.71       1.0  T
   5    -10.5539375 -0.233915E-03  0.188E-01    2.69       1.0  T
   6    -10.5539684 -0.309278E-04  0.129E-01    2.73       1.0  T
   7    -10.5540020 -0.336363E-04  0.671E-02    2.72       1.0  T
   8    -10.5540200 -0.179524E-04  0.536E-03    2.71       9.3  T
   9    -10.5540200 -0.160900E-07  0.197E-03    2.71      25.4  T
  10    -10.5540200 -0.202332E-08  0.263E-04    2.71     190.5  T
  11    -10.5540200 -0.177533E-09  0.868E-05    2.71     576.0  T
     SCC iter.                  ...        0 min,  0.001 sec
     gradient                   ...        0 min,  0.001 sec
 * total energy  :   -10.2329795 Eh     change       -0.1595107E-01 Eh
   gradient norm :     0.4621550 Eh/α   predicted    -0.8742180E-01 ( 448.06%)
   displ. norm   :     0.4811265 α      lambda       -0.1328085E+00
   maximum displ.:     0.3584794 α      in ANC's #2, #1, #3, ...

........................................................................
.............................. CYCLE    4 ..............................
........................................................................
   1    -10.3284677 -0.103285E+02  0.470E+00    2.17       0.0  T
   2    -10.0220766  0.306391E+00  0.842E+00    3.87       1.0  T
   3    -10.4434903 -0.421414E+00  0.222E+00    2.84       1.0  T
   4    -10.4583378 -0.148475E-01  0.817E-01    2.68       1.0  T
   5    -10.4577692  0.568674E-03  0.475E-01    2.61       1.0  T
   6    -10.4587205 -0.951300E-03  0.926E-02    2.68       1.0  T
   7    -10.4587370 -0.165152E-04  0.570E-02    2.68       1.0  T
   8    -10.4587425 -0.552215E-05  0.111E-02    2.68       4.5  T
   9    -10.4587428 -0.263962E-06  0.170E-03    2.68      29.5  T
  10    -10.4587428 -0.324489E-08  0.328E-04    2.68     152.6  T
  11    -10.4587428 -0.492307E-09  0.106E-04    2.68     473.2  T
     SCC iter.                  ...        0 min,  0.001 sec
     gradient                   ...        0 min,  0.001 sec
 * total energy  :   -10.2853191 Eh     change       -0.5233964E-01 Eh
   gradient norm :     0.1262745 Eh/α   predicted    -0.8177568E-01 (  56.24%)
   displ. norm   :     0.5653927 α      lambda       -0.2209373E-01
   maximum displ.:     0.4857933 α      in ANC's #1, #2, #3, ...

........................................................................
.............................. CYCLE    5 ..............................
........................................................................
   1    -10.4440390 -0.104440E+02  0.228E+00    2.85       0.0  T
   2    -10.4209305  0.231085E-01  0.220E+00    2.88       1.0  T
   3    -10.4238560 -0.292544E-02  0.219E+00    2.73       1.0  T
   4    -10.4479035 -0.240475E-01  0.724E-01    2.93       1.0  T
   5    -10.4493084 -0.140490E-02  0.105E-01    2.87       1.0  T
   6    -10.4493386 -0.301862E-04  0.425E-02    2.87       1.2  T
   7    -10.4493390 -0.410263E-06  0.147E-02    2.87       3.4  T
   8    -10.4493397 -0.694360E-06  0.296E-03    2.87      16.9  T
   9    -10.4493397  0.230638E-08  0.120E-03    2.87      41.8  T
  10    -10.4493397 -0.942025E-08  0.103E-04    2.87     484.3  T
  11    -10.4493397  0.259348E-12  0.430E-05    2.87    1163.3  T
     SCC iter.                  ...        0 min,  0.001 sec
     gradient                   ...        0 min,  0.001 sec
 * total energy  :   -10.2914468 Eh     change       -0.6127698E-02 Eh
   gradient norm :     0.1576565 Eh/α   predicted    -0.1457823E-01 ( 137.91%)
   displ. norm   :     0.2361021 α      lambda       -0.1778050E-01
   maximum displ.:     0.1292691 α      in ANC's #1, #2, #3, ...

........................................................................
.............................. CYCLE    6 ..............................
........................................................................
   1    -10.4414329 -0.104414E+02  0.207E+00    3.08       0.0  T
   2    -10.3494374  0.919955E-01  0.382E+00    2.39       1.0  T
   3    -10.4595877 -0.110150E+00  0.822E-01    2.90       1.0  T
   4    -10.4617208 -0.213313E-02  0.365E-01    2.83       1.0  T
   5    -10.4618522 -0.131403E-03  0.615E-02    2.80       1.0  T
   6    -10.4618573 -0.508962E-05  0.362E-02    2.81       1.4  T
   7    -10.4618609 -0.365253E-05  0.183E-02    2.80       2.7  T
   8    -10.4618614 -0.472556E-06  0.159E-03    2.80      31.4  T
   9    -10.4618614 -0.867844E-09  0.242E-04    2.80     206.6  T
  10    -10.4618614 -0.430731E-10  0.657E-05    2.80     760.5  T
     SCC iter.                  ...        0 min,  0.001 sec
     gradient                   ...        0 min,  0.001 sec
 * total energy  :   -10.2960760 Eh     change       -0.4629151E-02 Eh
   gradient norm :     0.0910295 Eh/α   predicted    -0.9385833E-02 ( 102.75%)
   displ. norm   :     0.5826940 α      lambda       -0.3398606E-01
   maximum displ.:     0.3779189 α      in ANC's #1, #2, #3, ...

........................................................................
.............................. CYCLE    7 ..............................
........................................................................
   1    -10.4708628 -0.104709E+02  0.303E+00    1.79       0.0  T
   2    -10.4470781  0.237847E-01  0.348E+00    2.69       1.0  T
   3    -10.4943181 -0.472400E-01  0.143E+00    1.98       1.0  T
   4    -10.4917644  0.255366E-02  0.122E+00    2.14       1.0  T
   5    -10.4962508 -0.448643E-02  0.312E-01    1.94       1.0  T
   6    -10.4967328 -0.481977E-03  0.792E-02    1.98       1.0  T
   7    -10.4967407 -0.791483E-05  0.386E-02    1.99       1.3  T
   8    -10.4967429 -0.215837E-05  0.290E-03    1.99      17.2  T
   9    -10.4967429 -0.547236E-08  0.155E-03    1.99      32.2  T
  10    -10.4967429 -0.477175E-08  0.226E-04    1.99     221.3  T
  11    -10.4967429 -0.967137E-10  0.698E-05    1.99     716.6  T
     SCC iter.                  ...        0 min,  0.001 sec
     gradient                   ...        0 min,  0.001 sec
 * total energy  :   -10.2485895 Eh     change        0.4748650E-01 Eh
   gradient norm :     0.4566204 Eh/α   predicted    -0.2276271E-01 (-147.94%)
   displ. norm   :     0.2979787 α      lambda       -0.1088192E+00
   maximum displ.:     0.2416577 α      in ANC's #3, #2, #4, ...

........................................................................
.............................. CYCLE    8 ..............................
........................................................................
   1    -10.4857914 -0.104858E+02  0.193E+00    2.73       0.0  T
   2    -10.4888701 -0.307872E-02  0.120E+00    2.59       1.0  T
   3    -10.4901323 -0.126213E-02  0.910E-01    2.62       1.0  T
   4    -10.4850780  0.505428E-02  0.944E-01    2.82       1.0  T
   5    -10.4917718 -0.669385E-02  0.757E-02    2.69       1.0  T
   6    -10.4917842 -0.123769E-04  0.341E-02    2.70       1.5  T
   7    -10.4917852 -0.936911E-06  0.777E-03    2.70       6.4  T
   8    -10.4917854 -0.236368E-06  0.179E-03    2.70      27.9  T
   9    -10.4917854 -0.136557E-08  0.259E-04    2.70     193.3  T
  10    -10.4917854 -0.248699E-09  0.645E-05    2.70     774.6  T
     SCC iter.                  ...        0 min,  0.001 sec
     gradient                   ...        0 min,  0.001 sec
 * total energy  :   -10.3038814 Eh     change       -0.5529186E-01 Eh
   gradient norm :     0.0807022 Eh/α   predicted    -0.5924067E-01 (   7.14%)
   displ. norm   :     0.1383944 α      lambda       -0.6639018E-02
   maximum displ.:     0.1059239 α      in ANC's #2, #1, #4, ...

........................................................................
.............................. CYCLE    9 ..............................
........................................................................
   1    -10.4955000 -0.104955E+02  0.113E+00    3.00       0.0  T
   2    -10.4775160  0.179840E-01  0.190E+00    2.55       1.0  T
   3    -10.5016541 -0.241381E-01  0.409E-01    2.83       1.0  T
   4    -10.5019763 -0.322233E-03  0.238E-01    2.81       1.0  T
   5    -10.5020339 -0.575664E-04  0.600E-02    2.81       1.0  T
   6    -10.5020467 -0.128089E-04  0.170E-02    2.81       2.9  T
   7    -10.5020473 -0.645225E-06  0.627E-03    2.82       8.0  T
   8    -10.5020474 -0.455132E-07  0.329E-04    2.81     151.9  T
   9    -10.5020474 -0.426805E-10  0.160E-04    2.81     311.9  T
     SCC iter.                  ...        0 min,  0.001 sec
     gradient                   ...        0 min,  0.001 sec
 * total energy  :   -10.3060418 Eh     change       -0.2160479E-02 Eh
   gradient norm :     0.0535080 Eh/α   predicted    -0.3383086E-02 (  56.59%)
   displ. norm   :     0.2698089 α      lambda       -0.4076268E-02
   maximum displ.:     0.2017960 α      in ANC's #1, #2, #4, ...

........................................................................
.............................. CYCLE   10 ..............................
........................................................................
   1    -10.4656718 -0.104657E+02  0.118E+00    2.62       0.0  T
   2    -10.4428694  0.228023E-01  0.206E+00    3.02       1.0  T
   3    -10.4705568 -0.276874E-01  0.567E-01    2.75       1.0  T
   4    -10.4707395 -0.182644E-03  0.299E-01    2.72       1.0  T
   5    -10.4709894 -0.249912E-03  0.295E-02    2.76       1.7  T
   6    -10.4709894  0.303940E-07  0.229E-02    2.76       2.2  T
   7    -10.4709909 -0.149291E-05  0.959E-03    2.77       5.2  T
   8    -10.4709911 -0.208765E-06  0.725E-04    2.77      68.9  T
   9    -10.4709911 -0.344471E-10  0.201E-04    2.77     249.1  T
     SCC iter.                  ...        0 min,  0.001 sec
     gradient                   ...        0 min,  0.001 sec
 * total energy  :   -10.3058815 Eh     change        0.1603564E-03 Eh
   gradient norm :     0.0673926 Eh/α   predicted    -0.2186504E-02 (*******%)
   displ. norm   :     0.1220688 α      lambda       -0.5264440E-02
   maximum displ.:     0.1150965 α      in ANC's #2, #3, #1, ...

........................................................................
.............................. CYCLE   11 ..............................
........................................................................
   1    -10.4983594 -0.104984E+02  0.367E-01    2.82       0.0  T
   2    -10.4979388  0.420541E-03  0.352E-01    2.76       1.0  T
   3    -10.4982018 -0.263005E-03  0.265E-01    2.82       1.0  T
   4    -10.4984839 -0.282083E-03  0.653E-02    2.80       1.0  T
   5    -10.4984941 -0.102053E-04  0.145E-02    2.79       3.4  T
   6    -10.4984943 -0.211161E-06  0.781E-03    2.79       6.4  T
   7    -10.4984946 -0.244014E-06  0.827E-04    2.79      60.4  T
   8    -10.4984946 -0.168211E-08  0.296E-04    2.79     169.2  T
     SCC iter.                  ...        0 min,  0.001 sec
     gradient                   ...        0 min,  0.001 sec
 * total energy  :   -10.3085693 Eh     change       -0.2687798E-02 Eh
   gradient norm :     0.0440534 Eh/α   predicted    -0.2671443E-02 (  -0.61%)
   displ. norm   :     0.0679791 α      lambda       -0.1188897E-02
   maximum displ.:     0.0425579 α      in ANC's #1, #4, #6, ...

........................................................................
.............................. CYCLE   12 ..............................
........................................................................
   1    -10.5024575 -0.105025E+02  0.372E-01    2.84       0.0  T
   2    -10.5010470  0.141050E-02  0.541E-01    2.72       1.0  T
   3    -10.5028476 -0.180061E-02  0.167E-01    2.80       1.0  T
   4    -10.5028943 -0.467026E-04  0.845E-02    2.80       1.0  T
   5    -10.5029067 -0.124403E-04  0.940E-03    2.79       5.3  T
   6    -10.5029068 -0.421560E-07  0.636E-03    2.79       7.9  T
   7    -10.5029068 -0.950141E-07  0.123E-03    2.79      40.6  T
   8    -10.5029069 -0.339176E-08  0.184E-04    2.79     272.1  T
   9    -10.5029069 -0.161542E-10  0.141E-05    2.79    3537.0  T
     SCC iter.                  ...        0 min,  0.001 sec
     gradient                   ...        0 min,  0.001 sec
 * total energy  :   -10.3095371 Eh     change       -0.9678704E-03 Eh
   gradient norm :     0.0226403 Eh/α   predicted    -0.5971971E-03 ( -38.30%)
   displ. norm   :     0.2858883 α      lambda       -0.2724077E-02
   maximum displ.:     0.2154712 α      in ANC's #1, #4, #6, ...

........................................................................
.............................. CYCLE   13 ..............................
........................................................................
   1    -10.4986857 -0.104987E+02  0.104E+00    2.78       0.0  T
   2    -10.4985352  0.150498E-03  0.659E-01    2.81       1.0  T
   3    -10.4934789  0.505626E-02  0.904E-01    2.68       1.0  T
   4    -10.4987525 -0.527360E-02  0.695E-02    2.80       1.0  T
   5    -10.4987757 -0.231825E-04  0.210E-02    2.79       2.4  T
   6    -10.4987757  0.231925E-07  0.815E-03    2.79       6.1  T
   7    -10.4987759 -0.260675E-06  0.147E-03    2.79      34.1  T
   8    -10.4987759 -0.423087E-08  0.645E-04    2.79      77.5  T
   9    -10.4987759 -0.154923E-09  0.675E-05    2.79     740.6  T
     SCC iter.                  ...        0 min,  0.001 sec
     gradient                   ...        0 min,  0.001 sec
 * total energy  :   -10.3112241 Eh     change       -0.1686954E-02 Eh
   gradient norm :     0.0308532 Eh/α   predicted    -0.1473358E-02 ( -12.66%)
   displ. norm   :     0.1022728 α      lambda       -0.1151274E-02
   maximum displ.:     0.0633556 α      in ANC's #4, #1, #6, ...

........................................................................
.............................. CYCLE   14 ..............................
........................................................................
   1    -10.5049213 -0.105049E+02  0.444E-01    2.78       0.0  T
   2    -10.5039509  0.970358E-03  0.489E-01    2.69       1.0  T
   3    -10.5049906 -0.103973E-02  0.268E-01    2.77       1.0  T
   4    -10.5051974 -0.206786E-03  0.246E-02    2.74       2.0  T
   5    -10.5051989 -0.147497E-05  0.120E-02    2.74       4.2  T
   6    -10.5051991 -0.182354E-06  0.353E-03    2.74      14.2  T
   7    -10.5051991 -0.496966E-07  0.777E-04    2.74      64.3  T
   8    -10.5051991 -0.149107E-08  0.318E-04    2.74     157.4  T
     SCC iter.                  ...        0 min,  0.001 sec
     gradient                   ...        0 min,  0.001 sec
 * total energy  :   -10.3119745 Eh     change       -0.7504136E-03 Eh
   gradient norm :     0.0093081 Eh/α   predicted    -0.5816578E-03 ( -22.49%)
   displ. norm   :     0.1434296 α      lambda       -0.4993280E-03
   maximum displ.:     0.0893562 α      in ANC's #1, #4, #6, ...

........................................................................
.............................. CYCLE   15 ..............................
........................................................................
   1    -10.5042243 -0.105042E+02  0.530E-01    2.74       0.0  T
   2    -10.5040407  0.183518E-03  0.372E-01    2.78       1.0  T
   3    -10.5027687  0.127205E-02  0.508E-01    2.69       1.0  T
   4    -10.5042843 -0.151562E-02  0.194E-02    2.76       2.6  T
   5    -10.5042851 -0.731810E-06  0.102E-02    2.76       4.9  T
   6    -10.5042852 -0.109755E-06  0.299E-03    2.76      16.7  T
   7    -10.5042852 -0.192924E-07  0.625E-04    2.76      80.1  T
   8    -10.5042852 -0.782389E-09  0.323E-04    2.76     154.8  T
     SCC iter.                  ...        0 min,  0.001 sec
     gradient                   ...        0 min,  0.001 sec
 * total energy  :   -10.3122319 Eh     change       -0.2573844E-03 Eh
   gradient norm :     0.0160473 Eh/α   predicted    -0.2548008E-03 (  -1.00%)
   displ. norm   :     0.0334419 α      lambda       -0.2783381E-03
   maximum displ.:     0.0246275 α      in ANC's #4, #2, #6, ...

........................................................................
.............................. CYCLE   16 ..............................
........................................................................
   1    -10.5116006 -0.105116E+02  0.221E-01    2.79       0.0  T
   2    -10.5107666  0.834022E-03  0.405E-01    2.69       1.0  T
   3    -10.5118627 -0.109609E-02  0.666E-02    2.75       1.0  T
   4    -10.5118630 -0.346047E-06  0.351E-02    2.75       1.4  T
   5    -10.5118646 -0.152316E-05  0.736E-03    2.75       6.8  T
   6    -10.5118646 -0.622410E-07  0.450E-03    2.75      11.1  T
   7    -10.5118647 -0.679913E-07  0.935E-04    2.75      53.5  T
   8    -10.5118647 -0.163513E-08  0.117E-04    2.75     429.0  T
     SCC iter.                  ...        0 min,  0.001 sec
     gradient                   ...        0 min,  0.001 sec
 * total energy  :   -10.3123226 Eh     change       -0.9068566E-04 Eh
   gradient norm :     0.0062371 Eh/α   predicted    -0.1393259E-03 (  53.64%)
   displ. norm   :     0.0335727 α      lambda       -0.6800925E-04
   maximum displ.:     0.0259821 α      in ANC's #1, #4, #6, ...

........................................................................
.............................. CYCLE   17 ..............................
........................................................................
   1    -10.5093047 -0.105093E+02  0.141E-01    2.73       0.0  T
   2    -10.5092242  0.805019E-04  0.149E-01    2.76       1.0  T
   3    -10.5093099 -0.857534E-04  0.867E-02    2.73       1.0  T
   4    -10.5093312 -0.212972E-04  0.247E-02    2.74       2.0  T
   5    -10.5093331 -0.184562E-05  0.300E-03    2.74      16.7  T
   6    -10.5093331  0.182311E-09  0.174E-03    2.74      28.7  T
   7    -10.5093331 -0.781952E-08  0.166E-04    2.74     300.3  T
   8    -10.5093331 -0.527365E-10  0.690E-05    2.74     724.9  T
     SCC iter.                  ...        0 min,  0.001 sec
     gradient                   ...        0 min,  0.001 sec
 * total energy  :   -10.3123587 Eh     change       -0.3607369E-04 Eh
   gradient norm :     0.0022703 Eh/α   predicted    -0.3404341E-04 (  -5.63%)
   displ. norm   :     0.0077425 α      lambda       -0.2800313E-05
   maximum displ.:     0.0049294 α      in ANC's #1, #6, #4, ...

........................................................................
.............................. CYCLE   18 ..............................
........................................................................
   1    -10.5092645 -0.105093E+02  0.305E-02    2.74       0.0  T
   2    -10.5092631  0.144057E-05  0.252E-02    2.74       2.0  T
   3    -10.5092624  0.659865E-06  0.238E-02    2.75       2.1  T
   4    -10.5092650 -0.261406E-05  0.451E-03    2.74      11.1  T
   5    -10.5092651 -0.718520E-07  0.575E-04    2.74      87.0  T
   6    -10.5092651  0.143093E-09  0.331E-04    2.74     151.2  T
     SCC iter.                  ...        0 min,  0.000 sec
     gradient                   ...        0 min,  0.001 sec
 * total energy  :   -10.3123606 Eh     change       -0.1906024E-05 Eh
   gradient norm :     0.0011979 Eh/α   predicted    -0.1401318E-05 ( -26.48%)
   displ. norm   :     0.0067204 α      lambda       -0.1531432E-05
   maximum displ.:     0.0041483 α      in ANC's #6, #1, #4, ...

........................................................................
.............................. CYCLE   19 ..............................
........................................................................
   1    -10.5095042 -0.105095E+02  0.292E-02    2.75       0.0  T
   2    -10.5095012  0.302515E-05  0.295E-02    2.74       1.7  T
   3    -10.5095041 -0.285225E-05  0.188E-02    2.74       2.7  T
   4    -10.5095052 -0.113877E-05  0.406E-03    2.74      12.3  T
   5    -10.5095053 -0.557474E-07  0.623E-04    2.74      80.2  T
   6    -10.5095053  0.193955E-09  0.359E-04    2.74     139.1  T
     SCC iter.                  ...        0 min,  0.000 sec
     gradient                   ...        0 min,  0.001 sec
 * total energy  :   -10.3123617 Eh     change       -0.1142618E-05 Eh
   gradient norm :     0.0008025 Eh/α   predicted    -0.7668596E-06 ( -32.89%)
   displ. norm   :     0.0018731 α      lambda       -0.5047451E-06
   maximum displ.:     0.0013647 α      in ANC's #5, #4, #3, ...

   *** GEOMETRY OPTIMIZATION CONVERGED AFTER 19 ITERATIONS ***

------------------------------------------------------------------------
 total energy gain   :        -0.2425080 Eh     -152.1761 kcal/mol
 total RMSD          :         1.2622740 a0        0.6680 Å
 total power (kW/mol):       -33.5107720 (step)********** (real)
------------------------------------------------------------------------

 ANCopt (total)                0 d,  0 h,  0 min,  0.056 sec
 optimizer setup                ...        0 min,  0.000 sec (  0.131%)
 model hessian                  ...        0 min,  0.000 sec (  0.142%)
 ANC generation                 ...        0 min,  0.000 sec (  0.090%)
 coordinate transformation      ...        0 min,  0.000 sec (  0.083%)
 single point calculation       ...        0 min,  0.054 sec ( 96.765%)
 optimization log               ...        0 min,  0.000 sec (  0.845%)
 hessian update                 ...        0 min,  0.000 sec (  0.078%)
 rational function              ...        0 min,  0.000 sec (  0.732%)

================
 final structure:
================
4
 xtb: 6.2.2 (9d81278992624c895f80dd42a50cac0aa55982e2)
C         1.88033978816031   -0.03585084587366    0.02048080181608
C         0.62011003391802   -0.00959053199474    0.00708720534544
C        -0.67745921044315    0.01219721866664   -0.00694299216186
O        -1.82299061163517    0.03324415920176   -0.02062601499965

 Bond Distances (Angstroems)
 ---------------------------
C1-C2=1.2606         C2-C1=1.2606         C2-C3=1.2978         C3-C2=1.2978         C3-O4=1.1458         O4-C3=1.1458         
 C  C  Rav=1.2792 sigma=0.0186  Rmin=1.2606  Rmax=1.2978     2
 O  C  Rav=1.1458 sigma=0.0000  Rmin=1.1458  Rmax=1.1458     1

 selected bond angles (degree)
 --------------------
C3-C2-C1=179.77                O4-C3-C2=179.89                

 selected dihedral angles (degree)
 ---------------------------------
O4-C3-C2-C1=218.21            
           -------------------------------------------------
          |                Final Singlepoint                |
           -------------------------------------------------

          ...................................................
          :                      SETUP                      :
          :.................................................:
          :  # basis functions                  16          :
          :  # atomic orbitals                  16          :
          :  # shells                            8          :
          :  # electrons                        18          :
          :  max. iterations                   250          :
          :  Hamiltonian                  GFN2-xTB          :
          :  restarted?                      false          :
          :  GBSA solvation                  false          :
          :  PC potential                    false          :
          :  electronic temp.          300.0000000     K    :
          :  accuracy                    1.0000000          :
          :  -> integral cutoff          0.2500000E+02      :
          :  -> integral neglect         0.1000000E-07      :
          :  -> SCF convergence          0.1000000E-05 Eh   :
          :  -> wf. convergence          0.1000000E-03 e    :
          :  Broyden damping             0.4000000          :
          ...................................................

 iter      E             dE          RMSdq      gap      omega  full diag
   1    -10.5095053 -0.105095E+02  0.811E-05    2.74       0.0  T
   2    -10.5095053  0.266276E-11  0.643E-05    2.74     778.1  T
   3    -10.5095053  0.252989E-10  0.622E-05    2.74     803.3  T

   *** convergence criteria satisfied after 3 iterations ***

         #    Occupation            Energy/Eh            Energy/eV
      -------------------------------------------------------------
         1        2.0000           -0.8086940             -22.0057
       ...           ...                  ...                  ...
         3        2.0000           -0.6494047             -17.6712
         4        2.0000           -0.6345885             -17.2680
         5        2.0000           -0.6345884             -17.2680
         6        2.0000           -0.6043297             -16.4446
         7        2.0000           -0.4672731             -12.7151
         8        2.0000           -0.4672728             -12.7151
         9        2.0000           -0.4337323             -11.8025 (HOMO)
        10                         -0.3329426              -9.0598 (LUMO)
        11                         -0.3329422              -9.0598
        12                         -0.1353315              -3.6826
        13                         -0.1353297              -3.6825
        14                          0.1550300               4.2186
       ...                                ...                  ...
        16                          1.3847409              37.6807
      -------------------------------------------------------------
                  HL-Gap            0.1007897 Eh            2.7426 eV
             Fermi-level           -0.3833375 Eh          -10.4311 eV

 SCC (total)                   0 d,  0 h,  0 min,  0.003 sec
 SCC setup                      ...        0 min,  0.000 sec (  2.649%)
 Dispersion                     ...        0 min,  0.000 sec (  0.259%)
 integral evaluation            ...        0 min,  0.001 sec ( 39.693%)
 zeroth order Hamiltonian       ...        0 min,  0.000 sec (  0.491%)
 iterations                     ...        0 min,  0.000 sec ( 18.295%)
 molecular gradient             ...        0 min,  0.001 sec ( 36.214%)
 printout                       ...        0 min,  0.000 sec (  1.945%)

         :::::::::::::::::::::::::::::::::::::::::::::::::::::
         ::                     SUMMARY                     ::
         :::::::::::::::::::::::::::::::::::::::::::::::::::::
         :: total energy             -10.312361710685 Eh    ::
         :: gradient norm              0.000865173955 Eh/a0 ::
         :: HOMO-LUMO gap              2.742628454803 eV    ::
         ::.................................................::
         :: SCC energy               -10.509505261839 Eh    ::
         :: -> isotropic ES            0.005091092714 Eh    ::
         :: -> anisotropic ES          0.000802648783 Eh    ::
         :: -> anisotropic XC          0.010297426264 Eh    ::
         :: -> dispersion             -0.001626920496 Eh    ::
         :: repulsion energy           0.197143633479 Eh    ::
         :: add. restraining           0.000000000000 Eh    ::
         :::::::::::::::::::::::::::::::::::::::::::::::::::::

           ------------------------------------------------- 
          |                Numerical Hessian                |
           ------------------------------------------------- 
step length          :   0.00500
SCC accuracy         :   0.30000
Hessian scale factor :   1.00000
frozen atoms in %    :   0.00000    0
RMS gradient         :   0.00087
estimated CPU  time      0.00 min
estimated wall time      0.00 min

writing file <hessian>.

 vibrational frequencies (cm-1)
eigval :        0.00     0.00     0.00     0.00     0.00   178.72
eigval :      178.80   552.26   552.51   994.44  1975.61  2317.92
           -------------------------------------------------
          |                Property Printout                |
           -------------------------------------------------

    * Orbital Energies and Occupations

         #    Occupation            Energy/Eh            Energy/eV
      -------------------------------------------------------------
         1        2.0000           -0.8086946             -22.0057
         2        2.0000           -0.6968661             -18.9627
         3        2.0000           -0.6494045             -17.6712
         4        2.0000           -0.6345892             -17.2680
         5        2.0000           -0.6345891             -17.2680
         6        2.0000           -0.6043300             -16.4447
         7        2.0000           -0.4672730             -12.7151
         8        2.0000           -0.4672726             -12.7151
         9        2.0000           -0.4337314             -11.8024 (HOMO)
        10                         -0.3329424              -9.0598 (LUMO)
        11                         -0.3329421              -9.0598
        12                         -0.1353315              -3.6826
        13                         -0.1353297              -3.6825
        14                          0.1550298               4.2186
        15                          0.7709950              20.9798
        16                          1.3847405              37.6807
      -------------------------------------------------------------
                  HL-Gap            0.1007889 Eh            2.7426 eV
             Fermi-level           -0.3833369 Eh          -10.4311 eV

     #   Z        covCN         q      C6AA      α(0)
     1   6 C      0.982    -0.121    39.834    10.601
     2   6 C      1.962    -0.034    31.982     9.133
     3   6 C      1.838     0.296    24.453     7.989
     4   8 O      0.856    -0.141    17.127     5.549

 Mol. C6AA /au·bohr⁶  :        440.471623
 Mol. C8AA /au·bohr⁸  :      11935.173735
 Mol. α(0) /au        :         33.271536


Wiberg/Mayer (AO) data.
largest (>0.10) Wiberg bond orders for each atom
          total WBO             WBO to atom ...
     1  C   2.718        C    2 2.238    O    4 0.258    C    3 0.222
     2  C   3.953        C    1 2.238    C    3 1.562    O    4 0.153
     3  C   3.886        O    4 2.102    C    2 1.562    C    1 0.222
     4  O   2.512        C    3 2.102    C    1 0.258    C    2 0.153

MOs/occ written to file <molden.input>


molecular dipole:
                 x           y           z       tot (Debye)
 q only:       -0.366       0.007      -0.004
   full:       -0.877       0.016      -0.009       2.230
molecular quadrupole (traceless):
                xx          xy          yy          xz          yz          zz
 q only:       -2.763       0.078       1.381      -0.047       0.001       1.382
  q+dip:       -3.841       0.109       1.920      -0.064       0.001       1.921
   full:       -7.386       0.210       3.692      -0.122       0.002       3.694

           -------------------------------------------------
          |                Geometry Summary                 |
           -------------------------------------------------

      molecular mass/u    :       52.0316126
   center of mass at/Å    :       -0.1397478       0.0025492      -0.0015809
Molecule has the following symmetry elements: (Cinf) (sigma) 
It seems to be the Cinfv point group
  moments of inertia/u·Å² :        0.6942240E-04   0.1048001E+03   0.1048001E+03
rotational constants/cm⁻¹ :        0.2428270E+06   0.1608551E+00   0.1608550E+00

 * 3 selected distances

     #   Z        #   Z                                     value/Å
     1   6 C      2   6 C                                 1.2605745
     2   6 C      3   6 C                                 1.2978280 (max)
     3   6 C      4   8 O                                 1.1458064 (min)

 * 2 distinct bonds (by element types)

   Z      Z             #   av. dist./Å        max./Å        min./Å
   6 C    6 C           2     1.2792012     1.2978280     1.2605745
   6 C    8 O           1     1.1458064     1.1458064     1.1458064

           -------------------------------------------------
          |               Frequency Printout                |
           -------------------------------------------------
 vibrational frequencies (cm-1)
eigval :        0.00     0.00     0.00     0.00     0.00   178.72
eigval :      178.80   552.26   552.51   994.44  1975.61  2317.92
 reduced masses (amu)
   1: 13.01   2: 13.23   3: 12.94   4: 13.95   5: 14.02   6: 12.73   7: 12.73   8: 12.34
   9: 12.34  10: 13.54  11: 12.50  12: 12.76
 IR intensities (amu)
   1:  0.14   2:  0.12   3:  0.05   4:  0.01   5:  0.13   6:  0.45   7:  0.44   8:  0.59
   9:  0.59  10:  0.16  11:  0.06  12:  3.83
 Raman intensities (amu)
   1:  0.00   2:  0.00   3:  0.00   4:  0.00   5:  0.00   6:  0.00   7:  0.00   8:  0.00
   9:  0.00  10:  0.00  11:  0.00  12:  0.00
 output can be read by thermo (or use thermo option).
 writing <g98.out> molden fake output.
 recommended (thermochemical) frequency scaling factor: 1.0
           -------------------------------------------------
          |             Thermodynamic Functions             |
           -------------------------------------------------

cin symmetry found (for desy threshold:  0.10E+00) used in thermo

          ...................................................
          :                      SETUP                      :
          :.................................................:
          :  # frequencies                           7      :
          :  # imaginary freq.                       0      :
          :  linear?                              true      :
          :  only rotor calc.                    false      :
          :  symmetry                              cin      :
          :  rotational number                       1      :
          :  scaling factor                  1.0000000      :
          :  rotor cutoff                   50.0000000 cm⁻¹ :
          :  imag. cutoff                  -20.0000000 cm⁻¹ :
          :.................................................:

    mode    ω/cm⁻¹     T·S(HO)/kcal·mol⁻¹    T·S(FR)/kcal·mol⁻¹   T·S(vib)
   ------------------------------------------------------------------------
       1    178.72    -0.00000 ( 99.39%)     0.01097 (  0.61%)     0.00007
       2    178.80    -0.00000 ( 99.39%)     0.01097 (  0.61%)     0.00007
   ------------------------------------------------------------------------

   temp. (K)  partition function   enthalpy   heat capacity  entropy
                                   cal/mol     cal/K/mol   cal/K/mol   J/K/mol
 298.15  VIB   3.49                 1006.735      6.406      5.858
         ROT  0.129E+04              592.502      1.987     16.218
         INT  0.449E+04             1599.237      8.393     22.076
         TR   0.363E+27             1481.254      4.968     37.753
         TOT                        3080.4910    13.3612    59.8297   250.3277

   temp. (K)  partition function   enthalpy   heat capacity  entropy
                                   cal/mol     cal/K/mol   cal/K/mol   J/K/mol
 120.00  VIB   1.29                  140.024      2.982      1.675
         ROT   519.                  238.471      1.987     14.410
         INT   667.                  378.496      4.969     16.084
         TR   0.927E+26              596.178      4.968     33.234
         TOT                         974.6736     9.9374    49.3184   206.3482

   temp. (K)  partition function   enthalpy   heat capacity  entropy
                                   cal/mol     cal/K/mol   cal/K/mol   J/K/mol
 100.00  VIB   1.17                   85.662      2.443      1.181
         ROT   432.                  198.726      1.987     14.047
         INT   507.                  284.388      4.431     15.228
         TR   0.705E+26              496.815      4.968     32.329
         TOT                         781.2026     9.3987    47.5573   198.9796

   temp. (K)  partition function   enthalpy   heat capacity  entropy
                                   cal/mol     cal/K/mol   cal/K/mol   J/K/mol
  80.00  VIB   1.09                   42.922      1.810      0.707
         ROT   346.                  158.981      1.987     13.604
         INT   375.                  201.902      3.797     14.311
         TR   0.505E+26              397.452      4.968     31.221
         TOT                         599.3543     8.7651    45.5316   190.5042

   temp. (K)  partition function   enthalpy   heat capacity  entropy
                                   cal/mol     cal/K/mol   cal/K/mol   J/K/mol
  60.00  VIB   1.03                   14.259      1.034      0.299
         ROT   259.                  119.236      1.987     13.032
         INT   267.                  133.495      3.021     13.331
         TR   0.328E+26              298.089      4.968     29.792
         TOT                         431.5839     7.9892    43.1234   180.4282

   temp. (K)  partition function   enthalpy   heat capacity  entropy
                                   cal/mol     cal/K/mol   cal/K/mol   J/K/mol
  40.00  VIB   1.00                    1.651      0.266      0.051
         ROT   173.                   79.490      1.987     12.226
         INT   173.                   81.142      2.253     12.277
         TR   0.178E+26              198.726      4.968     27.779
         TOT                         279.8676     7.2213    40.0557   167.5931

   temp. (K)  partition function   enthalpy   heat capacity  entropy
                                   cal/mol     cal/K/mol   cal/K/mol   J/K/mol
  20.00  VIB   1.00                    0.003      0.002     -0.005
         ROT   86.4                   39.745      1.987     10.849
         INT   86.4                   39.748      1.989     10.844
         TR   0.631E+25               99.363      4.968     24.337
         TOT                         139.1109     6.9571    35.1805   147.1954

   temp. (K)  partition function   enthalpy   heat capacity  entropy
                                   cal/mol     cal/K/mol   cal/K/mol   J/K/mol
  10.00  VIB   1.00                    0.000      0.000     -0.014
         ROT   43.2                   19.873      1.987      9.471
         INT   43.2                   19.873      1.987      9.458
         TR   0.223E+25               49.681      4.968     20.895
         TOT                          69.5541     6.9554    30.3525   126.9948

       T/K    H(0)-H(T)+PV         H(T)/Eh          T*S/Eh         G(T)/Eh
   ------------------------------------------------------------------------
    298.15    0.490907E-02    0.202873E-01    0.284270E-01   -0.813975E-02
    120.00    0.155324E-02    0.169315E-01    0.943127E-02    0.750019E-02
    100.00    0.124493E-02    0.166231E-01    0.757873E-02    0.904441E-02
     80.00    0.955132E-03    0.163334E-01    0.580474E-02    0.105286E-01
     60.00    0.687773E-03    0.160660E-01    0.412329E-02    0.119427E-01
     40.00    0.445997E-03    0.158242E-01    0.255331E-02    0.132709E-01
     20.00    0.221687E-03    0.155999E-01    0.112128E-02    0.144786E-01
     10.00    0.110842E-03    0.154891E-01    0.483698E-03    0.150054E-01 (used)
   ------------------------------------------------------------------------

         :::::::::::::::::::::::::::::::::::::::::::::::::::::
         ::                  THERMODYNAMIC                  ::
         :::::::::::::::::::::::::::::::::::::::::::::::::::::
         :: total free energy         -10.297356346758 Eh   ::
         ::.................................................::
         :: total energy              -10.312361711228 Eh   ::
         :: zero point energy           0.015378220516 Eh   ::
         :: G(RRHO) w/o ZPVE           -0.000372856045 Eh   ::
         :: G(RRHO) contrib.            0.015005364470 Eh   ::
         :::::::::::::::::::::::::::::::::::::::::::::::::::::

optimized geometry written to: xtbopt.xyz


           -------------------------------------------------
          | TOTAL ENERGY              -10.312361711228 Eh   |
          | TOTAL ENTHALPY            -10.296872649199 Eh   |
          | TOTAL FREE ENERGY         -10.297356346758 Eh   |
          | GRADIENT NORM               0.000868513300 Eh/α |
          | HOMO-LUMO GAP               2.742606529822 eV   |
           -------------------------------------------------

------------------------------------------------------------------------
 * finished run on 2020/05/12 at 11:45:17.688     
------------------------------------------------------------------------
 total:
 * wall-time:     0 d,  0 h,  0 min,  0.145 sec
 *  cpu-time:     0 d,  0 h,  0 min,  0.145 sec
 * ratio c/w:     0.999 speedup
 SCF:
 * wall-time:     0 d,  0 h,  0 min,  0.004 sec
 *  cpu-time:     0 d,  0 h,  0 min,  0.004 sec
 * ratio c/w:     1.000 speedup
 ANC optimizer:
 * wall-time:     0 d,  0 h,  0 min,  0.059 sec
 *  cpu-time:     0 d,  0 h,  0 min,  0.059 sec
 * ratio c/w:     0.999 speedup
 numerical hessian:
 * wall-time:     0 d,  0 h,  0 min,  0.063 sec
 *  cpu-time:     0 d,  0 h,  0 min,  0.063 sec
 * ratio c/w:     0.999 speedup

