4
 energy: -10.069853709618 gnorm: 0.402415438216 xtb: 6.2.2 (9d81278992624c895f80dd42a50cac0aa55982e2)
C         1.52975400000000    0.52075700000000    0.14385800000000
C         0.62793700000000   -0.59532100000000   -0.34679800000000
C        -0.72491400000000   -0.51630600000000    0.33597800000000
O        -1.43277700000000    0.59087000000000   -0.13303900000000
4
 energy: -10.217028436162 gnorm: 0.257603105998 xtb: 6.2.2 (9d81278992624c895f80dd42a50cac0aa55982e2)
C         1.50105414822313    0.43439166800432    0.10666988985773
C         0.65143255831015   -0.55088087997797   -0.24481932612823
C        -0.67346596129561   -0.40122500965155    0.21050564594510
O        -1.47902074523767    0.51771422162521   -0.07235720967460
4
 energy: -10.232979503789 gnorm: 0.465233173296 xtb: 6.2.2 (9d81278992624c895f80dd42a50cac0aa55982e2)
C         1.45991670207941    0.34003401671852    0.05266619557489
C         0.63142476521313   -0.44391440936491   -0.12546010478693
C        -0.65869363071240   -0.30322309759280    0.08878277665151
O        -1.43264783658014    0.40710349023919   -0.01598986743947
4
 energy: -10.285319143415 gnorm: 0.129682862604 xtb: 6.2.2 (9d81278992624c895f80dd42a50cac0aa55982e2)
C         1.60516066586031    0.33777553483505    0.04389536946085
C         0.65440779917336   -0.47082052686186   -0.06815357725114
C        -0.64567307206982   -0.28870782062567    0.01716317160036
O        -1.61389539296385    0.42175281265248    0.00709403618993
4
 energy: -10.291446841784 gnorm: 0.159753794361 xtb: 6.2.2 (9d81278992624c895f80dd42a50cac0aa55982e2)
C         1.79430881960688    0.26268562692935    0.05159322834122
C         0.60485061326182   -0.34456745471616   -0.05796617564390
C        -0.67771127671375   -0.22756720256970    0.02301588818728
O        -1.72144815615495    0.30944903035652   -0.01664394088459
4
 energy: -10.296075993177 gnorm: 0.093166616045 xtb: 6.2.2 (9d81278992624c895f80dd42a50cac0aa55982e2)
C         1.77067797045464    0.26527080549843    0.01877697260631
C         0.65362751881729   -0.36581741897581   -0.00142308869266
C        -0.70533809707853   -0.21270940803744   -0.04652753782088
O        -1.71896739219340    0.31325602151483    0.02917265390723
4
 energy: -10.248589494887 gnorm: 0.476415222610 xtb: 6.2.2 (9d81278992624c895f80dd42a50cac0aa55982e2)
C         1.70913850213923    0.13969879577704    0.07613148191737
C         0.68621196894850   -0.32560124314361   -0.08676055249805
C        -0.58025346772431   -0.04839855885537    0.01083257075461
O        -1.81509700336341    0.23430100622195   -0.00020450017391
4
 energy: -10.303881358528 gnorm: 0.083465180331 xtb: 6.2.2 (9d81278992624c895f80dd42a50cac0aa55982e2)
C         1.78187363152366    0.19019420104773    0.06381970803878
C         0.62554099328934   -0.30569613500922   -0.06923065978304
C        -0.64546966093232   -0.12120847741756    0.01488917402562
O        -1.76194496388068    0.23671041137906   -0.00947922228135
4
 energy: -10.306041837173 gnorm: 0.055782005430 xtb: 6.2.2 (9d81278992624c895f80dd42a50cac0aa55982e2)
C         1.79550800711554    0.19123981955867    0.03990841424054
C         0.62910544195515   -0.28870009848815   -0.02907438902787
C        -0.67622915968776   -0.13427531770373   -0.01806350653184
O        -1.74838428938291    0.23173559663321    0.00722848131918
4
 energy: -10.305881480786 gnorm: 0.067642773574 xtb: 6.2.2 (9d81278992624c895f80dd42a50cac0aa55982e2)
C         1.86875934977950    0.14315828690224    0.03045754402074
C         0.63194451680724   -0.23115156973424   -0.00037508575585
C        -0.68562558076587   -0.09789552723988   -0.04048796159764
O        -1.81507828582087    0.18588881007189    0.01040450333276
4
 energy: -10.308569279113 gnorm: 0.044904772913 xtb: 6.2.2 (9d81278992624c895f80dd42a50cac0aa55982e2)
C         1.83450626940528    0.14156381764068    0.04121257249371
C         0.61731460981168   -0.22862578934494   -0.02356415725615
C        -0.66681258493924   -0.10009241226895   -0.01450800080395
O        -1.78500829427772    0.18715438397322   -0.00314141443361
4
 energy: -10.309537149465 gnorm: 0.023199355014 xtb: 6.2.2 (9d81278992624c895f80dd42a50cac0aa55982e2)
C         1.84268605575095    0.12459883187641    0.03742972871537
C         0.61838408116329   -0.20492698232017   -0.01845499997586
C        -0.67242107858474   -0.09191241736835   -0.01438912139539
O        -1.78864905832950    0.17224056781212   -0.00458660734411
4
 energy: -10.311224103532 gnorm: 0.031808972665 xtb: 6.2.2 (9d81278992624c895f80dd42a50cac0aa55982e2)
C         1.88260307088559    0.05214022969245    0.03044554859380
C         0.61732448719237   -0.11265799267967   -0.00620463560370
C        -0.68037355129171   -0.04701132416209   -0.01015679487362
O        -1.81955400678624    0.10752908714933   -0.01408511811647
4
 energy: -10.311974517132 gnorm: 0.009463041664 xtb: 6.2.2 (9d81278992624c895f80dd42a50cac0aa55982e2)
C         1.87970414999891    0.02283148840470    0.02727329101791
C         0.62123194711246   -0.08092536195710   -0.00213825125433
C        -0.67851096329403   -0.02590240369268   -0.00979813159620
O        -1.82242513381733    0.08399627724509   -0.01533790816736
4
 energy: -10.312231901529 gnorm: 0.016360320621 xtb: 6.2.2 (9d81278992624c895f80dd42a50cac0aa55982e2)
C         1.88641552776263   -0.01605808400633    0.02209381978124
C         0.61901246501193   -0.03202467606364    0.00623958483832
C        -0.67854206210732   -0.00239807794458   -0.00923555275361
O        -1.82688593066723    0.05048083801455   -0.01909885186594
4
 energy: -10.312322587186 gnorm: 0.006394725936 xtb: 6.2.2 (9d81278992624c895f80dd42a50cac0aa55982e2)
C         1.87791849732592   -0.02342132865100    0.02007293278670
C         0.61867547560989   -0.02303384809668    0.00846417977932
C        -0.67700589138296    0.00124809397033   -0.00945818213959
O        -1.81958808155284    0.04520708277736   -0.01907993042642
4
 energy: -10.312358660878 gnorm: 0.002401901033 xtb: 6.2.2 (9d81278992624c895f80dd42a50cac0aa55982e2)
C         1.88044578817012   -0.03231331253890    0.02029749434234
C         0.61976728631464   -0.01344066627050    0.00776324497416
C        -0.67711663713114    0.00862847249766   -0.00777193939774
O        -1.82309643735362    0.03712550631174   -0.02028979991875
4
 energy: -10.312360566903 gnorm: 0.001289918312 xtb: 6.2.2 (9d81278992624c895f80dd42a50cac0aa55982e2)
C         1.88060213469741   -0.03436193931122    0.02020973788707
C         0.61998206758926   -0.01102325651948    0.00769299187766
C        -0.67739203533679    0.01022018014096   -0.00738631849036
O        -1.82319216694987    0.03516501568975   -0.02051741127435
4
 energy: -10.312361709521 gnorm: 0.000862413554 xtb: 6.2.2 (9d81278992624c895f80dd42a50cac0aa55982e2)
C         1.88033978816031   -0.03585084587366    0.02048080181608
C         0.62011003391802   -0.00959053199474    0.00708720534544
C        -0.67745921044315    0.01219721866664   -0.00694299216186
O        -1.82299061163517    0.03324415920176   -0.02062601499965
