[Molden Format]
[Title]
[Atoms] AU
C      1     6  0.35533266714832E+01 -0.67766811377826E-01  0.38690817446273E-01
C      2     6  0.11718379743471E+01 -0.18129589532554E-01  0.13388816994250E-01
C      3     6 -0.12802121746520E+01  0.23056080899824E-01 -0.13115923898947E-01
O      4     8 -0.34449524711849E+01  0.62840320007269E-01 -0.38965600267502E-01
[GTO]
           1 0
 s           4   1.0000000000000000     
   51.049363095579913      -0.16312063210127389     
   8.7911227406887544      -0.19911024581000730     
  0.70640422258929825       0.31882047753655751     
  0.26922813413411617       0.12706504184240380     
 p           4   1.0000000000000000     
   5.8263656140800002       0.73716451545209605     
   1.5106896018720002       0.68216371614850257     
  0.53256483288000001       0.35783053929253711     
  0.21202323690600003        5.3983030275847881E-002

           2 0
 s           4   1.0000000000000000     
   51.049363095579913      -0.16312063210127389     
   8.7911227406887544      -0.19911024581000730     
  0.70640422258929825       0.31882047753655751     
  0.26922813413411617       0.12706504184240380     
 p           4   1.0000000000000000     
   5.8263656140800002       0.73716451545209605     
   1.5106896018720002       0.68216371614850257     
  0.53256483288000001       0.35783053929253711     
  0.21202323690600003        5.3983030275847881E-002

           3 0
 s           4   1.0000000000000000     
   51.049363095579913      -0.16312063210127389     
   8.7911227406887544      -0.19911024581000730     
  0.70640422258929825       0.31882047753655751     
  0.26922813413411617       0.12706504184240380     
 p           4   1.0000000000000000     
   5.8263656140800002       0.73716451545209605     
   1.5106896018720002       0.68216371614850257     
  0.53256483288000001       0.35783053929253711     
  0.21202323690600003        5.3983030275847881E-002

           4 0
 s           4   1.0000000000000000     
   69.137961906196551      -0.20478756370077797     
   11.906129132707308      -0.24997023136827334     
  0.95670827744340703       0.40025880240639616     
  0.36462520496073686       0.15952206667693555     
 p           4   1.0000000000000000     
   8.2124193257781641        1.1321556799186829     
   2.1293576997098116        1.0476840782254817     
  0.75066448202360914       0.54956508217158984     
  0.29885246543283073        8.2908486592766617E-002

[MO]
Sym=     1a
Ene=  -0.80869464322373741     
Spin= Alpha
Occup=     2.00000000
           1   2.1034502703390816E-003
           2   1.7591692237050225E-003
           3  -3.5306657778717607E-005
           4   1.8621911260372743E-005
           5  -1.7955356005732323E-002
           6   3.0549949844806305E-002
           7  -5.2573491202534883E-004
           8   3.4255966330209748E-004
           9 -0.33832707474511697     
          10  0.22418043314261690     
          11  -4.1513243033422277E-003
          12   2.6866974824957890E-003
          13 -0.63721160781429209     
          14 -0.24667881781336592     
          15   4.5444841446287323E-003
          16  -2.9667974780308113E-003
Sym=     2a
Ene=  -0.69686606972775911     
Spin= Alpha
Occup=     2.00000000
           1 -0.10683235252306783     
           2   6.6054304286040380E-002
           3  -1.2886381939498390E-003
           4   7.0868050903821712E-004
           5 -0.36118023252880549     
           6  0.13314778153722745     
           7  -2.0699300869729625E-003
           8   1.4606322166647505E-003
           9 -0.45257395086178481     
          10 -0.24360641126424606     
          11   4.1110725162280520E-003
          12  -2.5950115570156636E-003
          13  0.39762067007403973     
          14 -0.33398168802085682     
          15   5.8375893946659031E-003
          16  -3.7287194566809575E-003
Sym=     3a
Ene=  -0.64940452626295253     
Spin= Alpha
Occup=     2.00000000
           1  0.48743925892306983     
           2 -0.14387481133563021     
           3   2.9793216532131394E-003
           4  -1.5451118583665153E-003
           5  0.38339203816529066     
           6  0.22246031561725885     
           7  -4.6647779170628147E-003
           8   2.2734401906843696E-003
           9 -0.10108866587329206     
          10  0.10160269766754890     
          11  -2.2287420243271593E-003
          12   6.0227271687760366E-004
          13  0.35447502519154739     
          14 -0.34958557721825423     
          15   5.9276518225603678E-003
          16  -4.8290657131901497E-003
Sym=     4a
Ene=  -0.63458916024105405     
Spin= Alpha
Occup=     2.00000000
           1   5.3305574538748497E-004
           2  -5.6765516678894802E-004
           3  -2.1047095132390618E-002
           4   8.2793211132946871E-003
           5  -3.6255093359078227E-004
           6  -1.9802736593865283E-003
           7 -0.11048973732877707     
           8   4.3466110842660312E-002
           9   3.9256323626206239E-004
          10  -1.1194766537362030E-002
          11 -0.47475449334121006     
          12  0.18675608286847636     
          13  -9.6818086078909941E-004
          14  -1.4179736605129228E-002
          15 -0.66627340667107049     
          16  0.26210180388307930     
Sym=     5a
Ene=  -0.63458907963211741     
Spin= Alpha
Occup=     2.00000000
           1  -6.6471339559698371E-004
           2   2.4819684587043718E-004
           3  -8.2871940642175526E-003
           4  -2.1051373171092593E-002
           5  -6.1916903506993842E-004
           6   1.3170691363426689E-004
           7  -4.3472124403427126E-002
           8 -0.11050420535238045     
           9  -4.5178854232715522E-005
          10   1.9742186545096086E-003
          11 -0.18684008161608165     
          12 -0.47484955055199257     
          13  -3.6814482551228249E-004
          14   3.5177957222316419E-003
          15 -0.26221541292568135     
          16 -0.66637065532936191     
Sym=     6a
Ene=  -0.60433000365803557     
Spin= Alpha
Occup=     2.00000000
           1  0.38172926711727451     
           2  -1.7947685555999758E-002
           3   6.2878452273174706E-004
           4  -2.2536647746173067E-004
           5 -0.11473757657142265     
           6  0.33889027376288944     
           7  -6.0501523299704802E-003
           8   3.4438312124706852E-003
           9 -0.10895381377481239     
          10 -0.35269696795155114     
          11   7.0934974193793349E-003
          12  -4.4124670709862054E-003
          13 -0.36712441565181214     
          14  0.51764127528112880     
          15  -8.0524196544700822E-003
          16   5.6852308573675167E-003
Sym=     7a
Ene=  -0.46727298614695484     
Spin= Alpha
Occup=     2.00000000
           1   2.1996913682173435E-003
           2  -8.4079293251657777E-003
           3 -0.47048454381076726     
           4   6.2938482197703940E-002
           5  -2.2665282302132455E-003
           6  -1.3158001861827485E-002
           7 -0.62327729639814689     
           8   8.3362313183323142E-002
           9   6.5728452593067526E-004
          10  -3.7736975128553831E-003
          11 -0.22067839991255045     
          12   2.9523723647832973E-002
          13   1.4451874420043121E-004
          14   7.6000634018416778E-003
          15  0.40369122954991904     
          16  -5.4001663325757732E-002
Sym=     8a
Ene=  -0.46727264749401481     
Spin= Alpha
Occup=     2.00000000
           1  -3.9593575962359266E-005
           2  -3.7676125088384796E-003
           3   6.3012845810899110E-002
           4  0.47053486367989478     
           5   1.7292665302798120E-004
           6  -4.9803500896377188E-003
           7   8.3481709161137063E-002
           8  0.62338433615466082     
           9   5.6430738016695181E-005
          10  -2.0510553240138465E-003
          11   2.9560712712001582E-002
          12  0.22069789772927198     
          13   4.3722686241579030E-005
          14   3.9379461493750439E-003
          15  -5.4080767266352178E-002
          16 -0.40373621899673001     
Sym=     9a
Ene=  -0.43373137208497053     
Spin= Alpha
Occup=     2.00000000
           1 -0.62273259790402935     
           2 -0.67502423710871051     
           3   1.2194155953643976E-002
           4  -6.8997220455866278E-003
           5  0.22798523782748789     
           6  0.20840063206704901     
           7  -6.0038884822646030E-003
           8   2.4715741509658885E-003
           9 -0.14878292633413745     
          10 -0.13226354949959004     
          11   1.1102301935695235E-003
          12  -1.6068244665352902E-003
          13  -1.6086233213155509E-002
          14  0.10364997199799979     
          15  -9.4739661297924991E-005
          16   1.2568831749024849E-003
Sym=    10a
Ene=  -0.33294243668963186     
Spin= Alpha
Occup=     0.00000000
           1   1.9463070067200352E-004
           2  -1.5961894466040922E-002
           3 -0.58515139044615250     
           4  0.35726499786402910     
           5   6.4767287351450841E-004
           6   1.5417579643520795E-003
           7   7.7173338061506683E-002
           8  -4.7117504592758305E-002
           9  -1.2616280815876152E-003
          10   1.3362345177322064E-002
          11  0.55743283181393277     
          12 -0.34034179973248774     
          13  -8.4306257154818533E-005
          14  -1.1166541713313797E-002
          15 -0.45436957196090916     
          16  0.27741610612279410     
Sym=    11a
Ene=  -0.33294207090173650     
Spin= Alpha
Occup=     0.00000000
           1   1.9169095630821183E-005
           2  -1.5670830314942967E-003
           3 -0.35733091270772654     
           4 -0.58532673971610261     
           5   2.1112338418844369E-004
           6   9.3493192176081303E-005
           7   4.7123064945770739E-002
           8   7.7185861931114236E-002
           9  -2.8643556200508345E-004
          10  -6.0623825296639972E-004
          11  0.34042294721744676     
          12  0.55754457321069506     
          13   4.4323742953216554E-006
          14   4.7383929547303654E-004
          15 -0.27748477633644258     
          16 -0.45446535228815271     
Sym=    12a
Ene=  -0.13533151003871524     
Spin= Alpha
Occup=     0.00000000
           1  -1.6069460597889861E-004
           2  -1.0184507661196546E-002
           3 -0.60481778217992754     
           4  -6.6820329558076763E-002
           5   2.7727272961999339E-003
           6   1.4564444039914236E-002
           7  0.83757045915276429     
           8   9.2540732615558299E-002
           9  -6.7578253132493825E-004
          10  -1.0937179355255247E-002
          11 -0.62272489462238112     
          12  -6.8803304055165646E-002
          13   1.1763355731434280E-004
          14   5.8389480177254947E-003
          15  0.32305317231234715     
          16   3.5695615204339261E-002
Sym=    13a
Ene=  -0.13532968780112684     
Spin= Alpha
Occup=     0.00000000
           1   3.4766590728821625E-005
           2  -7.9959999048405898E-003
           3  -6.6691255838856128E-002
           4  0.60486592920659743     
           5  -2.3873247871673543E-004
           6   1.0971598539858726E-002
           7   9.2359713104215271E-002
           8 -0.83765218043831147     
           9   8.3082050109871083E-004
          10  -8.3731855966606428E-003
          11  -6.8662498693424834E-002
          12  0.62277843064288096     
          13  -1.6992983641927746E-004
          14   4.0398842345597584E-003
          15   3.5626044565578899E-002
          16 -0.32308666371527828     
Sym=    14a
Ene=   0.15502983544088955     
Spin= Alpha
Occup=     0.00000000
           1  0.24495499696724435     
           2 -0.51146155296569717     
           3   9.0295952245352112E-003
           4  -5.7323077082564698E-003
           5 -0.94956790569916394     
           6  0.27664982952631489     
           7  -1.8613424441278582E-003
           8   3.6640594393790448E-003
           9  0.97698128046362487     
          10  0.15142674721888202     
          11  -2.5112115225589902E-003
          12   5.2720921006261666E-004
          13 -0.29340684501144526     
          14 -0.49334601957393431     
          15   8.9517999315363982E-003
          16  -5.3917267359513792E-003
Sym=    15a
Ene=   0.77099495838516086     
Spin= Alpha
Occup=     0.00000000
           1  0.64912677487108683     
           2 -0.75706931492713070     
           3   1.5622169083860089E-002
           4  -7.9695382668561517E-003
           5 -0.75466337640317693     
           6 -0.72790965517131512     
           7   1.5854159254426171E-002
           8  -7.9832681378579785E-003
           9 -0.70880177047938719     
          10  0.66568727388054749     
          11  -1.3276103552205203E-002
          12   8.0207287750877643E-003
          13  0.59466270754632644     
          14  0.63834817656021270     
          15  -1.1432497740075272E-002
          16   7.6087611805444261E-003
Sym=    16a
Ene=    1.3847405262336527     
Spin= Alpha
Occup=     0.00000000
           1 -0.59159704055419460     
           2  0.55074222496761127     
           3  -1.2252251927135310E-002
           4   5.8645382209678871E-003
           5 -0.24438409166434569     
           6   1.2810095860816195     
           7  -2.3378608362345833E-002
           8   1.3566927882191604E-002
           9  0.15768813291018091     
          10   1.3544673983950004     
          11  -2.3240568631927607E-002
          12   1.5368055351457608E-002
          13  0.67204780991135249     
          14  0.58115172497019230     
          15  -1.1090941094174469E-002
          16   7.1341360388778533E-003
