[Molden Format]
[Title]
[Atoms] AU
C      1     6 -0.48087215477715E+01 -0.37485171614493E-01  0.64727358009319E-03
C      2     6 -0.24472533098431E+01 -0.14812959031104E-01 -0.11728201916880E-02
C      3     6  0.24476800401172E+01  0.18054769810281E-01 -0.30889180352567E-03
C      4     6 -0.19207007819938E-03  0.49118930489568E-02 -0.29152633685764E-03
C      5     6  0.48084849978496E+01  0.29331467796261E-01  0.11259647585518E-02
[GTO]
           1 0
 s           4   1.0000000000000000     
   51.049363095579913      -0.16312063210127389     
   8.7911227406887544      -0.19911024581000730     
  0.70640422258929825       0.31882047753655751     
  0.26922813413411617       0.12706504184240380     
 p           4   1.0000000000000000     
   5.8263656140800002       0.73716451545209605     
   1.5106896018720002       0.68216371614850257     
  0.53256483288000001       0.35783053929253711     
  0.21202323690600003        5.3983030275847881E-002

           2 0
 s           4   1.0000000000000000     
   51.049363095579913      -0.16312063210127389     
   8.7911227406887544      -0.19911024581000730     
  0.70640422258929825       0.31882047753655751     
  0.26922813413411617       0.12706504184240380     
 p           4   1.0000000000000000     
   5.8263656140800002       0.73716451545209605     
   1.5106896018720002       0.68216371614850257     
  0.53256483288000001       0.35783053929253711     
  0.21202323690600003        5.3983030275847881E-002

           3 0
 s           4   1.0000000000000000     
   51.049363095579913      -0.16312063210127389     
   8.7911227406887544      -0.19911024581000730     
  0.70640422258929825       0.31882047753655751     
  0.26922813413411617       0.12706504184240380     
 p           4   1.0000000000000000     
   5.8263656140800002       0.73716451545209605     
   1.5106896018720002       0.68216371614850257     
  0.53256483288000001       0.35783053929253711     
  0.21202323690600003        5.3983030275847881E-002

           4 0
 s           4   1.0000000000000000     
   51.049363095579913      -0.16312063210127389     
   8.7911227406887544      -0.19911024581000730     
  0.70640422258929825       0.31882047753655751     
  0.26922813413411617       0.12706504184240380     
 p           4   1.0000000000000000     
   5.8263656140800002       0.73716451545209605     
   1.5106896018720002       0.68216371614850257     
  0.53256483288000001       0.35783053929253711     
  0.21202323690600003        5.3983030275847881E-002

           5 0
 s           4   1.0000000000000000     
   51.049363095579913      -0.16312063210127389     
   8.7911227406887544      -0.19911024581000730     
  0.70640422258929825       0.31882047753655751     
  0.26922813413411617       0.12706504184240380     
 p           4   1.0000000000000000     
   5.8263656140800002       0.73716451545209605     
   1.5106896018720002       0.68216371614850257     
  0.53256483288000001       0.35783053929253711     
  0.21202323690600003        5.3983030275847881E-002

[MO]
Sym=     1a
Ene=  -0.67480886142922680     
Spin= Alpha
Occup=     2.00000000
           1 -0.14877063489665249     
           2  -9.2111204704585128E-002
           3  -8.3140443488029594E-004
           4   4.0361295764034468E-005
           5 -0.36279019752679198     
           6  -9.6483915411647983E-002
           7  -5.9706044140910193E-004
           8  -1.0393955726709206E-004
           9 -0.36246891233054729     
          10   9.6371018647822992E-002
          11   6.2900285668397434E-004
          12  -3.2281360843812382E-005
          13 -0.51032156598967082     
          14   1.8647226684834862E-004
          15   4.3606145556457761E-004
          16   3.9011125720941019E-005
          17 -0.14867796985391121     
          18   9.2116249294409203E-002
          19   4.6703872953564703E-004
          20   3.9441765897253344E-005
Sym=     2a
Ene=  -0.66488265206621100     
Spin= Alpha
Occup=     2.00000000
           1 -0.29996494679129337     
           2 -0.13171259247676956     
           3  -1.2547257867834023E-003
           4   8.2147156565264115E-005
           5 -0.38488663937496082     
           6   7.1425976898720461E-002
           7   7.1410037635764151E-004
           8  -1.2427722059558350E-004
           9  0.38531050843895559     
          10   7.1642961498544211E-002
          11   3.7807921617946281E-004
          12   7.7750028254248231E-005
          13  -3.6805899288202279E-005
          14  0.24378834841987285     
          15   1.6660560552157139E-003
          16   2.7124642571706713E-005
          17  0.30037063705141726     
          18 -0.13197507461196287     
          19  -6.2528788952498056E-004
          20  -6.8952725907842286E-005
Sym=     3a
Ene=  -0.63997137951015315     
Spin= Alpha
Occup=     2.00000000
           1 -0.38103632421955436     
           2 -0.10160286644583251     
           3  -1.0175925563168575E-003
           4   9.6636093227757831E-005
           5 -0.13209432515527353     
           6  0.28879379499438912     
           7   2.5740166702626533E-003
           8  -1.0465512560370789E-004
           9 -0.13177664695838684     
          10 -0.28861609809566552     
          11  -1.4593154245769024E-003
          12  -1.2160849226178655E-004
          13  0.31097264615851244     
          14   1.2025516978934317E-004
          15   6.0523724243289584E-005
          16  -8.8168338310532827E-005
          17 -0.38046745316839409     
          18  0.10149761201397282     
          19   4.6451269989802749E-004
          20   6.8171676668363088E-005
Sym=     4a
Ene=  -0.59230218117004763     
Spin= Alpha
Occup=     2.00000000
           1 -0.33745999900620161     
           2  -2.8728821014501029E-003
           3  -4.9911594050182510E-005
           4   5.7681511217331941E-005
           5  0.15491063699639759     
           6  0.32021123573615495     
           7   3.0534292932205861E-003
           8  -7.1608100131051396E-005
           9 -0.15503447279956695     
          10  0.32047784932657936     
          11   1.4488161072531295E-003
          12   7.5722624221459723E-005
          13  -2.0481672516107542E-004
          14 -0.41503675443579535     
          15  -2.7256991167800173E-003
          16  -1.0633106433009603E-004
          17  0.33737756340379754     
          18  -2.8420529943743444E-003
          19  -2.6518825290594388E-005
          20  -3.8022165593033693E-005
Sym=     5a
Ene=  -0.52101482916603792     
Spin= Alpha
Occup=     2.00000000
           1   4.5676355201022994E-005
           2  -1.8793786879758870E-006
           3   8.2035867711345890E-003
           4  0.21459833380912044     
           5  -2.7644383992863947E-004
           6  -2.6224380585820720E-005
           7   1.5583004563252619E-002
           8  0.40763848974356415     
           9  -1.9091344330006589E-004
          10  -1.8764809151707509E-004
          11   1.5581805099019604E-002
          12  0.40764546258542578     
          13   1.8831232776877793E-004
          14  -2.5308391019708153E-004
          15   2.0138905205785235E-002
          16  0.52686573762440581     
          17   8.2225255696312640E-005
          18  -1.0140140540417446E-004
          19   8.2108657191744382E-003
          20  0.21481113278667796     
Sym=     6a
Ene=  -0.52101473086252659     
Spin= Alpha
Occup=     2.00000000
           1   2.1243217427684627E-004
           2  -1.9895477221178277E-003
           3  0.21458924069341628     
           4  -8.2033338564807840E-003
           5   3.6925490052743882E-004
           6  -3.6837409685611254E-003
           7  0.40762160908658568     
           8  -1.5582412892697274E-002
           9   1.9729131877086229E-004
          10  -2.0662188929102859E-003
          11  0.40764044266512955     
          12  -1.5582682175535259E-002
          13   7.1458840859487771E-004
          14  -3.4840889103605046E-003
          15  0.52685388510360565     
          16  -2.0140148728000247E-002
          17   1.3815463636544215E-004
          18  -1.0580209765598512E-003
          19  0.21480883961686806     
          20  -8.2114352372076281E-003
Sym=     7a
Ene=  -0.46368333461851119     
Spin= Alpha
Occup=     2.00000000
           1  -6.2688722328284362E-004
           2  -7.9228853223040410E-004
           3  0.11023610351122408     
           4 -0.42024260462481489     
           5   4.8176118144334395E-004
           6  -1.3636981951594431E-003
           7  0.11713120537246538     
           8 -0.44654713950410868     
           9  -7.0449833979919536E-005
          10   3.2904359396752404E-004
          11 -0.11714872360158200     
          12  0.44658703599197169     
          13  -1.0868823590430794E-004
          14   1.7509125676234055E-004
          15   1.0996704714398259E-004
          16  -4.1562840210845203E-004
          17   4.7677989964021387E-006
          18   3.0061722092158347E-004
          19 -0.11036074781097342     
          20  0.42070968649626111     
Sym=     8a
Ene=  -0.46368326426509349     
Spin= Alpha
Occup=     2.00000000
           1  -1.9375625856304566E-004
           2  -3.7650321682910107E-003
           3  0.42022605522457229     
           4  0.11023831783509892     
           5   1.8003068932791110E-004
           6  -4.1335360485375335E-003
           7  0.44652838041553589     
           8  0.11713878729035938     
           9   2.5603654545615660E-004
          10   2.1989600101900235E-003
          11 -0.44658131050460254     
          12 -0.11714945004174285     
          13  -1.1442439077112263E-004
          14   7.5684007288399365E-005
          15   4.1619027945340766E-004
          16   1.0925478707062404E-004
          17  -4.6504015751610254E-004
          18   1.6674599427866058E-003
          19 -0.42070652643126671     
          20 -0.11036144763298247     
Sym=     9a
Ene=  -0.44561245541229394     
Spin= Alpha
Occup=     1.99974992
           1  0.47094305619426446     
           2 -0.46854503429527716     
           3  -4.4149553382729504E-003
           4   1.1945764167909921E-004
           5 -0.17114991690759476     
           6  0.10359980315668349     
           7   1.0242234074478572E-003
           8  -2.6641091168094977E-004
           9 -0.17088788746862962     
          10 -0.10301780624672786     
          11  -1.1415019463769593E-003
          12   1.2301838460506049E-004
          13  0.19822110283290334     
          14  -1.4561600491159297E-004
          15   5.3989472487301336E-004
          16  -3.0182773537845226E-004
          17  0.47007946932047151     
          18  0.46760234356233293     
          19   1.4954263424367068E-003
          20   4.9232562138116695E-004
Sym=    10a
Ene=  -0.42985412732688927     
Spin= Alpha
Occup=     1.00025008
           1  0.42271473255548786     
           2 -0.49585893196501579     
           3  -4.8845861016025170E-003
           4   4.7853827708661902E-005
           5  -8.4979997834762497E-002
           6  0.18773900733488560     
           7   1.7032811220325900E-003
           8  -3.6173219085169065E-004
           9   8.5207641273466514E-002
          10  0.18785641996799171     
          11   8.6372516665566515E-004
          12   4.0371610800280200E-004
          13  -2.7835101066671223E-004
          14 -0.20562486637776298     
          15  -1.1871229268004717E-003
          16  -1.4239913800705159E-004
          17 -0.42374218996059415     
          18 -0.49689109540083959     
          19  -2.4519036025639389E-003
          20   1.4361469017008270E-004
Sym=    11a
Ene=  -0.37372301424832649     
Spin= Alpha
Occup=     0.50001002
           1  -1.5504094876254922E-004
           2   3.8391783754761610E-003
           3 -0.39068973128679835     
           4 -0.41375146090712789     
           5  -9.0046643720539233E-005
           6   9.8149350251742809E-005
           7  -3.8950672109191925E-002
           8  -4.1246602496026949E-002
           9  -8.8571550503271497E-005
          10   4.1547561557642214E-004
          11  -3.8789866072476670E-002
          12  -4.1079002321412462E-002
          13   6.1941287335732576E-004
          14  -2.8317374249719903E-003
          15  0.41503324222103882     
          16  0.43951978388999263     
          17  -1.2406678679243680E-004
          18   1.7963181778325953E-003
          19 -0.39008900776426919     
          20 -0.41309959258793116     
Sym=    12a
Ene=  -0.37372293808820090     
Spin= Alpha
Occup=     0.49998998
           1   2.2992319376913817E-004
           2  -4.9621842308495067E-003
           3  0.41372219640807556     
           4 -0.39070866270997046     
           5   2.7203232652263354E-005
           6  -1.1946981177744072E-004
           7   4.1247296253285659E-002
           8  -3.8949711842521342E-002
           9   2.1700631109510760E-005
          10  -3.3144964690818440E-004
          11   4.1077614520133830E-002
          12  -3.8791093928653202E-002
          13  -2.0055072226443651E-004
          14   2.7539618286745973E-003
          15 -0.43951130806711047     
          16  0.41504276825027703     
          17   1.1112191142499401E-004
          18  -1.3855175609946708E-003
          19  0.41309736668781344     
          20 -0.39009321063527974     
Sym=    13a
Ene=  -0.22345880233787294     
Spin= Alpha
Occup=     0.00000000
           1   6.6528594065716037E-005
           2   1.6378800682396713E-003
           3 -0.15019519407614354     
           4  0.56767760012896040     
           5   5.0834065826343294E-004
           6  -1.3960024471984984E-003
           7  0.14641229248736984     
           8 -0.55337234674029900     
           9  -1.1615978742620681E-004
          10   4.6671677035639981E-004
          11 -0.14638913194664227     
          12  0.55326628636640973     
          13  -1.6788274970634790E-004
          14   2.9973230104254125E-004
          15  -1.1222035624291724E-004
          16   4.3007796375139500E-004
          17  -3.0982596416379224E-005
          18  -3.9419059745495876E-004
          19  0.15027342530918097     
          20 -0.56794527314279897     
Sym=    14a
Ene=  -0.22345863925285683     
Spin= Alpha
Occup=     0.00000000
           1  -3.8534384167988498E-005
           2  -5.2459955405765087E-003
           3  0.56765387570786896     
           4  0.15020309259874340     
           5  -2.0163505796007115E-004
           6   5.0244473186016299E-003
           7 -0.55335038790004754     
           8 -0.14641797232548376     
           9  -2.1396210841547212E-004
          10  -2.5545373993377317E-003
          11  0.55326023250949463     
          12  0.14639079357658549     
          13   1.7851733846778293E-004
          14  -1.5452569330669832E-004
          15   4.2896979387584307E-004
          16   1.1339060828585678E-004
          17   7.5322797912005030E-007
          18   2.6589018128384935E-003
          19 -0.56793844669384164     
          20 -0.15027467668171371     
Sym=    15a
Ene=   -9.6924334074794075E-002
Spin= Alpha
Occup=     0.00000000
           1   3.5582235178406975E-004
           2  -2.2288742018698794E-003
           3  0.40093370240698600     
           4  -7.2144004401492892E-002
           5  -2.6984996977018703E-003
           6   4.6086216044959900E-003
           7 -0.63853952172659489     
           8  0.11490001032328956     
           9  -2.2201140951653249E-003
          10   4.3083623868329481E-003
          11 -0.63863816933526918     
          12  0.11491923584730820     
          13   3.3427378084049057E-003
          14  -4.6947813134548336E-003
          15  0.68084321827612548     
          16 -0.12251566837754470     
          17   2.8889296091092175E-004
          18  -3.2314229317262715E-003
          19  0.40127586976154583     
          20  -7.2207954764842805E-002
Sym=    16a
Ene=   -9.6921747350335791E-002
Spin= Alpha
Occup=     0.00000000
           1   3.6881168441933980E-005
           2   5.7112461770378320E-004
           3  -7.2143000908346813E-002
           4 -0.40093958714676292     
           5  -2.8237337565651798E-004
           6  -7.8172425088228795E-004
           7  0.11490088510455060     
           8  0.63856302232861017     
           9  -1.2323666122124560E-004
          10  -8.6089804774057215E-004
          11  0.11491624347225989     
          12  0.63865531594549729     
          13  -2.2497730729503532E-004
          14   8.9434316388844256E-004
          15 -0.12251204767301528     
          16 -0.68086944062343702     
          17   1.4905084469820794E-005
          18   5.0655893435118718E-004
          19  -7.2205567908592463E-002
          20 -0.40128649786359033     
Sym=    17a
Ene=   0.10864167606630633     
Spin= Alpha
Occup=     0.00000000
           1  0.17618601433642833     
           2  0.39472094868280982     
           3   2.3670702664408943E-003
           4   1.7042364669016960E-004
           5 -0.74392967812340749     
           6 -0.26316705573331212     
           7   7.1205690533003476E-004
           8  -8.6803277551633759E-004
           9 -0.74416827452703049     
          10  0.26406281258499381     
          11   3.6984422448871437E-003
          12  -4.7504949922532841E-004
          13  0.93141248913852337     
          14   5.8603074239492339E-004
          15  -3.8354830829570898E-003
          16   2.2767997517304735E-004
          17  0.17584239436939839     
          18 -0.39442926260529393     
          19  -2.9503578049197227E-003
          20   4.1146371005933652E-005
Sym=    18a
Ene=   0.52295700976009918     
Spin= Alpha
Occup=     0.00000000
           1  0.43148181896775611     
           2  0.58586411383871828     
           3   5.4985292907428580E-003
           4  -2.6628744842224062E-004
           5 -0.90850375234587821     
           6  0.16433039411578440     
           7   2.0169235727438197E-003
           8  -7.3717780052477146E-004
           9  0.90760765780690500     
          10  0.16190553050555764     
          11   9.0921100432574641E-004
          12   3.9532669959835932E-004
          13  -8.1541811784233327E-004
          14 -0.74721939621139921     
          15  -5.2246496493912661E-003
          16  -1.8042023869637221E-005
          17 -0.43007067816543204     
          18  0.58423058751372237     
          19   2.7405658653410271E-003
          20   2.6595749380743184E-004
Sym=    19a
Ene=    1.0430405272648582     
Spin= Alpha
Occup=     0.00000000
           1  0.62806446331934784     
           2  0.64961350264927653     
           3   6.4342782055183956E-003
           4  -5.8177929146539624E-004
           5 -0.33107362399205914     
           6  0.97202388270693629     
           7   8.6086982427529234E-003
           8  -4.5667382189176135E-004
           9 -0.33442196691836851     
          10 -0.97167977252371729     
          11  -5.0216898522801893E-003
          12  -4.8620740304436487E-004
          13 -0.77735564235322141     
          14   1.6121960411535090E-003
          15   7.3960002154722048E-004
          16   4.4020729212812526E-004
          17  0.62932266314766827     
          18 -0.65104392620274931     
          19  -3.0057665839962121E-003
          20  -4.2564685109456853E-004
Sym=    20a
Ene=    1.4474898627463504     
Spin= Alpha
Occup=     0.00000000
           1 -0.51350169655414768     
           2 -0.46836545709433541     
           3  -4.6341482167663178E-003
           4   5.4980709535263879E-004
           5 -0.22205760032211483     
           6  -1.1056491282394441     
           7  -9.9832069228427411E-003
           8   3.7508895884354265E-005
           9  0.22020919884178902     
          10  -1.1061914185233566     
          11  -5.3159283844687790E-003
          12  -1.8445946776165806E-004
          13   6.2208302176144860E-004
          14  -1.2737201371455746     
          15  -8.4550173728264177E-003
          16  -2.7857956525782957E-004
          17  0.51459477564816247     
          18 -0.46940348001769922     
          19  -2.2417664980303280E-003
          20  -3.9958619329012079E-004
