$hessian                                                                        
        0.7099006168   0.0066523583  -0.0005485578  -0.5443082171  -0.0052382705
        0.0004468765   0.1783258138   0.0007946794   0.0000267931  -0.2322366584
       -0.0017814083   0.0000139379  -0.1117122465  -0.0004594863  -0.0001017794
        0.0066523583   0.0082359118  -0.0000052428  -0.0051114145  -0.0143261887
        0.0000041726   0.0016650339   0.0075196941   0.0000002202  -0.0021158297
        0.0015439214   0.0000002028  -0.0010904176  -0.0029781038  -0.0000009925
       -0.0005485578  -0.0000052428   0.0081787782   0.0004462415   0.0000044424
       -0.0142804221  -0.0001584808  -0.0000005904   0.0075106733   0.0001364740
        0.0000009002   0.0015637494   0.0001243244   0.0000005070  -0.0029743952
       -0.5443082171  -0.0051114145   0.0004462415   0.9780756157   0.0083802787
       -0.0001887758  -0.3282606883  -0.0015874579  -0.0000675836  -0.2838154797
       -0.0023968094  -0.0001888096   0.1783185602   0.0007418546   0.0001269288
       -0.0052382705  -0.0143261887   0.0000044424   0.0083802787   0.0308404584
       -0.0000021470  -0.0027794355  -0.0119329076  -0.0000006579  -0.0019686210
       -0.0120916818  -0.0000014982   0.0016061257   0.0075210982   0.0000012600
        0.0004468765   0.0000041726  -0.0142804221  -0.0001887758  -0.0000021470
        0.0307666045  -0.0000237310  -0.0000003670  -0.0119190131  -0.0002892756
       -0.0000019716  -0.0120781385   0.0000549178   0.0000003163   0.0075160811
        0.1783258138   0.0016650339  -0.0001584808  -0.3282606883  -0.0027794355
       -0.0000237310   0.9790284451   0.0048778208   0.0002949603  -0.2824563671
       -0.0012863981   0.0001123268  -0.5466252340  -0.0025229474  -0.0003572981
        0.0007946794   0.0075196941  -0.0000005904  -0.0015874579  -0.0119329076
       -0.0000003670   0.0048778208   0.0307360135   0.0000014110  -0.0016203809
       -0.0121440997   0.0000007009  -0.0024646842  -0.0141741491  -0.0000016853
        0.0000267931   0.0000002202   0.0075106733  -0.0000675836  -0.0000006579
       -0.0119190131   0.0002949603   0.0000014110   0.0307149506   0.0001114219
        0.0000008103  -0.0121417562  -0.0003655904  -0.0000018237  -0.0141601390
       -0.2322366584  -0.0021158297   0.0001364740  -0.2838154797  -0.0019686210
       -0.0002892756  -0.2824563671  -0.0016203809   0.0001114219   1.0306809067
        0.0068250661   0.0001723816  -0.2321323814  -0.0011281874  -0.0001166709
       -0.0017814083   0.0015439214   0.0000009002  -0.0023968094  -0.0120916818
       -0.0000019716  -0.0012863981  -0.0121440997   0.0000008103   0.0068250661
        0.0211347789   0.0000010741  -0.0013601227   0.0015470462  -0.0000007089
        0.0000139379   0.0000002028   0.0015637494  -0.0001888096  -0.0000014982
       -0.0120781385   0.0001123268   0.0000007009  -0.0121417562   0.0001723816
        0.0000010741   0.0210979329  -0.0001098456  -0.0000005048   0.0015516067
       -0.1117122465  -0.0010904176   0.0001243244   0.1783185602   0.0016061257
        0.0000549178  -0.5466252340  -0.0024646842  -0.0003655904  -0.2321323814
       -0.0013601227  -0.0001098456   0.7121202129   0.0033686539   0.0004488140
       -0.0004594863  -0.0029781038   0.0000005070   0.0007418546   0.0075210982
        0.0000003163  -0.0025229474  -0.0141741491  -0.0000018237  -0.0011281874
        0.0015470462  -0.0000005048   0.0033686539   0.0080835788   0.0000021721
       -0.0001017794  -0.0000009925  -0.0029743952   0.0001269288   0.0000012600
        0.0075160811  -0.0003572981  -0.0000016853  -0.0141601390  -0.0001166709
       -0.0000007089   0.0015516067   0.0004488140   0.0000021721   0.0080652413
