5
 energy: -10.047735329550 gnorm: 0.277339564697 xtb: 6.2.2 (9d81278992624c895f80dd42a50cac0aa55982e2)
C        -1.40680400000000   -0.88181700000000    0.24054200000000
C        -0.76940300000000    0.29290000000000   -0.49050300000000
C         0.76536000000000    0.30315700000000   -0.49061100000000
C        -0.00764000000000    1.14871300000000    0.50022800000000
C         1.41848600000000   -0.86295300000000    0.24034400000000
5
 energy: -10.129303959562 gnorm: 0.176504857514 xtb: 6.2.2 (9d81278992624c895f80dd42a50cac0aa55982e2)
C        -1.44480708771960   -0.82335218725625    0.17770876136696
C        -0.76419860112516    0.22630600958858   -0.40088321641540
C         0.76105609844138    0.23649849971760   -0.40098940334822
C        -0.00774825826971    1.16453263990096    0.44665847479666
C         1.45569684867310   -0.80398496195090    0.17750538360001
5
 energy: -10.145023495830 gnorm: 0.265848832418 xtb: 6.2.2 (9d81278992624c895f80dd42a50cac0aa55982e2)
C        -1.43438914292512   -0.76638472420410    0.10268716554106
C        -0.78729788143069    0.15993255083794   -0.28239003578230
C         0.78505583669409    0.17043730180586   -0.28249809917307
C        -0.00787690319525    1.18317250408665    0.35971674974845
C         1.44450709085698   -0.74715763252635    0.10248421966586
5
 energy: -10.172465926161 gnorm: 0.062447447824 xtb: 6.2.2 (9d81278992624c895f80dd42a50cac0aa55982e2)
C        -1.58359724535987   -0.80085478810582    0.09030984507491
C        -0.79263802598470    0.16844977461654   -0.25321904691350
C         0.79028462623101    0.17902591138244   -0.25332692028522
C        -0.00821382941536    1.23301518427079    0.32615061664345
C         1.59416347452891   -0.77963608216395    0.09008550548036
5
 energy: -10.178914852309 gnorm: 0.068062664110 xtb: 6.2.2 (9d81278992624c895f80dd42a50cac0aa55982e2)
C        -1.69891010817947   -0.75608050730018    0.06714945198075
C        -0.80657676248518    0.14156313799704   -0.21547302849177
C         0.80458440173964    0.15232504541746   -0.21558398176643
C        -0.00796368340931    1.19551585082898    0.29699685722613
C         1.70886515233432   -0.73332352694331    0.06691070105132
5
 energy: -10.199017809310 gnorm: 0.065876107134 xtb: 6.2.2 (9d81278992624c895f80dd42a50cac0aa55982e2)
C        -1.80336519867779   -0.72247774545752    0.00967087561868
C        -0.85309104999071    0.11750483587659   -0.09606891267045
C         0.85143634434812    0.12889233803606   -0.09617853874899
C        -0.00783551748749    1.17441305213469    0.17316705827282
C         1.81285442180787   -0.69833248058981    0.00940951752794
5
 energy: -10.217525558656 gnorm: 0.057432874024 xtb: 6.2.2 (9d81278992624c895f80dd42a50cac0aa55982e2)
C        -1.91088782828915   -0.66012443605743   -0.04917987113011
C        -0.94973098654750    0.10962194134933    0.05459758076265
C         0.94818718879652    0.12229071540836    0.05446726926831
C        -0.00709166514752    1.06274490507939   -0.01043688094846
C         1.91952229118765   -0.63453312577964   -0.04944809795240
5
 energy: -10.211726543674 gnorm: 0.154538920460 xtb: 6.2.2 (9d81278992624c895f80dd42a50cac0aa55982e2)
C        -2.11099038933105   -0.59456474252554   -0.10561342545117
C        -1.03190140454954    0.08171059297571    0.17728789060833
C         1.03074321062486    0.09548078751848    0.17720818396296
C        -0.00661977212919    0.98374455181374   -0.14292811171567
C         2.11876735538492   -0.56637118978238   -0.10595453740445
5
 energy: -10.236221331191 gnorm: 0.073775193073 xtb: 6.2.2 (9d81278992624c895f80dd42a50cac0aa55982e2)
C        -2.10732983180478   -0.55844261375519   -0.07083186485236
C        -1.04837981047976    0.09920046162461    0.12616176917716
C         1.04697469510343    0.11318574487366    0.12603924148860
C        -0.00587519593981    0.87632429884690   -0.11022615337569
C         2.11460914312092   -0.53026789158998   -0.07114299243771
5
 energy: -10.250123397178 gnorm: 0.055969901830 xtb: 6.2.2 (9d81278992624c895f80dd42a50cac0aa55982e2)
C        -2.19535579892289   -0.48757416572909   -0.06650655462611
C        -1.14253018925979    0.11139106964886    0.15260970970012
C         1.14093343746594    0.12661775100880    0.15231925535055
C        -0.00463527916582    0.70763972349008   -0.17171040438270
C         2.20158682988256   -0.45807437841864   -0.06671200604187
5
 energy: -10.260603010639 gnorm: 0.046688582804 xtb: 6.2.2 (9d81278992624c895f80dd42a50cac0aa55982e2)
C        -2.37451937579633   -0.37621514565561   -0.05437379616737
C        -1.22899041789572    0.10708602760158    0.15440315685869
C         1.22776432454150    0.12374007081869    0.15533738709892
C        -0.00417212597925    0.49100137158969   -0.19974317578060
C         2.37991659512981   -0.34561232435434   -0.05562357200965
5
 energy: -10.265511107083 gnorm: 0.047573230541 xtb: 6.2.2 (9d81278992624c895f80dd42a50cac0aa55982e2)
C        -2.42788158967553   -0.34362821240407   -0.03189731354107
C        -1.25302816263254    0.11083838097874    0.10930135315961
C         1.24764515965220    0.12417962536475    0.10010145822338
C         0.00452788199437    0.41073382851619   -0.15348861277305
C         2.42873571066150   -0.30212362245561   -0.02401688506887
5
 energy: -10.250148670887 gnorm: 0.223208823785 xtb: 6.2.2 (9d81278992624c895f80dd42a50cac0aa55982e2)
C        -2.46298017201220   -0.24880546197578    0.05811235996929
C        -1.26738104165907    0.10050290009183   -0.01285012092469
C         1.31390090850821    0.15910165097637    0.07194002563431
C        -0.07576825122444    0.29300079646893   -0.09026962513537
C         2.49222755638749   -0.30379988556133   -0.02693263954355
5
 energy: -10.266899704851 gnorm: 0.085129819528 xtb: 6.2.2 (9d81278992624c895f80dd42a50cac0aa55982e2)
C        -2.47243225520338   -0.27396847772731    0.02707638877668
C        -1.31713629691122    0.12721397072618    0.01808049759387
C         1.31208923446585    0.14568433931223    0.04583252715287
C        -0.01304597693948    0.26122447081394   -0.10213535801499
C         2.49052429458823   -0.26015430312502    0.01114594449157
5
 energy: -10.263060847404 gnorm: 0.107483249772 xtb: 6.2.2 (9d81278992624c895f80dd42a50cac0aa55982e2)
C        -2.48617744637732   -0.32476344609465    0.00200955418255
C        -1.24377389839413    0.08817274656878    0.05305666501908
C         1.27343179200004    0.14212605129649    0.03500293000216
C         0.02121353656635    0.34702129768318   -0.08963347756498
C         2.43530501620506   -0.25255664945378   -0.00043567163881
5
 energy: -10.269215798839 gnorm: 0.044661782027 xtb: 6.2.2 (9d81278992624c895f80dd42a50cac0aa55982e2)
C        -2.47580416572168   -0.28332538568667    0.01589581006437
C        -1.29057238018505    0.11820452871438    0.01457343964981
C         1.27441044957389    0.12407905223158    0.02819020163030
C         0.00105756430961    0.29281846403214   -0.07479405872679
C         2.49090753202323   -0.25177665929143    0.01613460738231
5
 energy: -10.267818896610 gnorm: 0.077253738761 xtb: 6.2.2 (9d81278992624c895f80dd42a50cac0aa55982e2)
C        -2.50396730684103   -0.25677052748295    0.04993276200427
C        -1.30547348253858    0.11164257659334   -0.01249928694127
C         1.33258645274034    0.15762757846274    0.00903216800654
C        -0.01436108104725    0.22079817461109   -0.06692187870516
C         2.49121441768652   -0.23329780218421    0.02045623563561
5
 energy: -10.270413683436 gnorm: 0.013159249600 xtb: 6.2.2 (9d81278992624c895f80dd42a50cac0aa55982e2)
C        -2.48381737693439   -0.26866126165108    0.03261812753087
C        -1.29776746696866    0.11786293095758   -0.00590626236409
C         1.29445718522036    0.13482114564551    0.00820906286403
C        -0.00315885737399    0.25465330130502   -0.05999575836975
C         2.49028551605668   -0.23867611625701    0.02507483033892
5
 energy: -10.270614176520 gnorm: 0.020516789907 xtb: 6.2.2 (9d81278992624c895f80dd42a50cac0aa55982e2)
C        -2.49989064574348   -0.25529441458302    0.03663836492358
C        -1.30041692342253    0.11512697316405   -0.01463206511617
C         1.29764118909296    0.13195067306853   -0.00333008411417
C        -0.00111609569040    0.23013404841097   -0.04938478434426
C         2.50378147576345   -0.22191728006051    0.03070856865101
5
 energy: -10.271065732106 gnorm: 0.017738787893 xtb: 6.2.2 (9d81278992624c895f80dd42a50cac0aa55982e2)
C        -2.49648738515117   -0.24386177273875    0.04259531244883
C        -1.29716505034805    0.11462987355891   -0.03108594103732
C         1.29197955251263    0.12681106208995   -0.02721228874164
C         0.00257899248248    0.20742792236681   -0.02691517744055
C         2.49909289050410   -0.20500708527690    0.04261809477068
5
 energy: -10.271327729442 gnorm: 0.010895288192 xtb: 6.2.2 (9d81278992624c895f80dd42a50cac0aa55982e2)
C        -2.50219245779691   -0.22590353451254    0.04732274108668
C        -1.29807897865315    0.11131336703139   -0.03932902476146
C         1.29518447849022    0.12381136188058   -0.03865380300099
C         0.00043751634055    0.17937814574569   -0.01682930446014
C         2.50464844161928   -0.18859934014511    0.04748939113591
5
 energy: -10.271653329454 gnorm: 0.009168932949 xtb: 6.2.2 (9d81278992624c895f80dd42a50cac0aa55982e2)
C        -2.51457026068099   -0.17869887203917    0.04252721331584
C        -1.29596512806103    0.08869213896833   -0.06001694371488
C         1.29358097306036    0.10328873990307   -0.05429235249954
C        -0.00089601822586    0.12922001043664    0.03171004907111
C         2.51784943390752   -0.14250201726886    0.04007203382746
5
 energy: -10.271948994940 gnorm: 0.008516478930 xtb: 6.2.2 (9d81278992624c895f80dd42a50cac0aa55982e2)
C        -2.51528949014047   -0.16618773319678    0.03270385660375
C        -1.29389332913947    0.08539806728587   -0.04144906948220
C         1.29125698921676    0.09200477582306   -0.05869820843913
C        -0.00190676861912    0.11483723822297    0.02524840829094
C         2.51983159868230   -0.12605234813511    0.04219501302663
5
 energy: -10.272275782330 gnorm: 0.034009281417 xtb: 6.2.2 (9d81278992624c895f80dd42a50cac0aa55982e2)
C        -2.53065098138054   -0.07250603937926    0.03210908736864
C        -1.28190962788482    0.02167761665074   -0.03922759038714
C         1.28534669900799    0.07244667548338    0.03421696158825
C        -0.00558381327538    0.03335423835232   -0.02169456330634
C         2.53279672353276   -0.05497249110716   -0.00540389526342
5
 energy: -10.273040183655 gnorm: 0.023602048594 xtb: 6.2.2 (9d81278992624c895f80dd42a50cac0aa55982e2)
C        -2.54494559170258   -0.06285435432053    0.00740483711119
C        -1.29002753158628    0.02865724534260    0.00180134740338
C         1.29175824360566    0.04727773392929   -0.00846541222200
C        -0.00051558859400    0.01482873684072   -0.01392273250736
C         2.54372946827719   -0.02790936179208    0.01318196021477
5
 energy: -10.272945348946 gnorm: 0.018326311613 xtb: 6.2.2 (9d81278992624c895f80dd42a50cac0aa55982e2)
C        -2.53398519003202   -0.09390969895912    0.01337551563328
C        -1.29647415815662    0.04399618714272    0.00138391585524
C         1.29638678326165    0.06039790417178   -0.00873892187939
C         0.00056535912653    0.04748952655694   -0.02513012549796
C         2.53350620580045   -0.05797391891230    0.01910961588882
5
 energy: -10.273203997386 gnorm: 0.004819816052 xtb: 6.2.2 (9d81278992624c895f80dd42a50cac0aa55982e2)
C        -2.54267744018427   -0.06279427669768    0.00919275643326
C        -1.29467755887978    0.02736676485120   -0.00126382782820
C         1.29497702874460    0.04724787575269   -0.00408244849801
C        -0.00052724312195    0.01687352400532   -0.01501035716419
C         2.54290421344140   -0.02869388791153    0.01116387705712
5
 energy: -10.273248747012 gnorm: 0.008574193752 xtb: 6.2.2 (9d81278992624c895f80dd42a50cac0aa55982e2)
C        -2.54584287769842   -0.04434954523388    0.00610209749500
C        -1.29467549523383    0.01716668221258   -0.00124001954295
C         1.29487897220073    0.03817949436786   -0.00127443847120
C        -0.00027800561168   -0.00020714755504   -0.01022044531119
C         2.54591640634320   -0.01078948379152    0.00663280583034
5
 energy: -10.273293762226 gnorm: 0.006305310796 xtb: 6.2.2 (9d81278992624c895f80dd42a50cac0aa55982e2)
C        -2.54577827558578   -0.03196499957857    0.00419281035807
C        -1.29502082863232    0.00986826930181   -0.00286966114407
C         1.29468009620054    0.03072700743946   -0.00107673992700
C         0.00013108548121   -0.01027917690930   -0.00403219648383
C         2.54598692253635    0.00164889974661    0.00378578719683
5
 energy: -10.273333760941 gnorm: 0.002379664188 xtb: 6.2.2 (9d81278992624c895f80dd42a50cac0aa55982e2)
C        -2.54420217380428   -0.01944965001163    0.00135969634088
C        -1.29539123165986    0.00177435948976   -0.00195847595178
C         1.29452476547364    0.02136204881059   -0.00046658533989
C         0.00055149425262   -0.01846264952235   -0.00005339164561
C         2.54451614573787    0.01477589123364    0.00111875659639
5
 energy: -10.273345028592 gnorm: 0.002100440375 xtb: 6.2.2 (9d81278992624c895f80dd42a50cac0aa55982e2)
C        -2.54399213355685   -0.01116736752255   -0.00093884336193
C        -1.29524234352719   -0.00386181614527    0.00027813828397
C         1.29452243990860    0.01499989124385    0.00067808475486
C         0.00052189637010   -0.02340058458980    0.00059735557005
C         2.54418914080533    0.02342987701378   -0.00061473524697
5
 energy: -10.273353305720 gnorm: 0.002324254473 xtb: 6.2.2 (9d81278992624c895f80dd42a50cac0aa55982e2)
C        -2.54345028122657   -0.00738563028112   -0.00215995375800
C        -1.29498664387526   -0.00753561722897    0.00143465912047
C         1.29465476410531    0.01071055869035    0.00093852256588
C         0.00026881126829   -0.02331312530769    0.00116375845533
C         2.54351234972822    0.02752381412742   -0.00137698638369
5
 energy: -10.273361089594 gnorm: 0.002116325114 xtb: 6.2.2 (9d81278992624c895f80dd42a50cac0aa55982e2)
C        -2.54355468531710   -0.00532532841699   -0.00298574843927
C        -1.29477359802776   -0.01069309749985    0.00225371048473
C         1.29497197905054    0.00705633310313    0.00095958676504
C        -0.00003232834004   -0.02089519451311    0.00157145295460
C         2.54338763263435    0.02985728732682   -0.00179900176512
5
 energy: -10.273369585802 gnorm: 0.002521797872 xtb: 6.2.2 (9d81278992624c895f80dd42a50cac0aa55982e2)
C        -2.54380549663061   -0.00827584527624   -0.00255506655359
C        -1.29467433397325   -0.01170990876794    0.00192544641552
C         1.29537348925302    0.00567041004457    0.00045619983092
C        -0.00031958794622   -0.01280610326109    0.00146182113993
C         2.54342492929706    0.02712144726070   -0.00128840083280
5
 energy: -10.273375339268 gnorm: 0.001694307768 xtb: 6.2.2 (9d81278992624c895f80dd42a50cac0aa55982e2)
C        -2.54444646733194   -0.01342642038289   -0.00138264837766
C        -1.29476358692562   -0.01077833413390    0.00090127595275
C         1.29551921255630    0.00649488851308    0.00004632277749
C        -0.00035503953081   -0.00433286103185    0.00087188625111
C         2.54404488123207    0.02204272703557   -0.00043683660370
5
 energy: -10.273377012118 gnorm: 0.000536581385 xtb: 6.2.2 (9d81278992624c895f80dd42a50cac0aa55982e2)
C        -2.54466599003529   -0.01984962482810    0.00033360525548
C        -1.29503075779341   -0.00784546074678   -0.00062516397855
C         1.29525656750528    0.00956095584317   -0.00015892053286
C        -0.00010165218891    0.00259926184209   -0.00015426492642
C         2.54454083251232    0.01553486788962    0.00060474418235
