      -----------------------------------------------------------      
     |                   =====================                   |     
     |                           x T B                           |     
     |                   =====================                   |     
     |                         S. Grimme                         |     
     |          Mulliken Center for Theoretical Chemistry        |     
     |                    University of Bonn                     |     
      -----------------------------------------------------------      

   * xtb version 6.2.2 (9d81278992624c895f80dd42a50cac0aa55982e2) compiled by '@Darwin' on 04/03/2020

   xtb is free software: you can redistribute it and/or modify it under
   the terms of the GNU Lesser General Public License as published by
   the Free Software Foundation, either version 3 of the License, or
   (at your option) any later version.
   
   xtb is distributed in the hope that it will be useful,
   but WITHOUT ANY WARRANTY; without even the implied warranty of
   MERCHANTABILITY or FITNESS FOR A PARTICULAR PURPOSE.  See the
   GNU Lesser General Public License for more details.
   
   Cite this work as:
   * S. Grimme, C. Bannwarth, P. Shushkov, J. Chem. Theory Comput., 2017,
     13, 1989-2009. DOI: 10.1021/acs.jctc.7b00118
   * C. Bannwarth, S. Ehlert and S. Grimme., J. Chem. Theory Comput., 2019,
     15, 1652-1671. DOI: 10.1021/acs.jctc.8b01176
   * P. Pracht, E. Caldeweyher, S. Ehlert, S. Grimme, ChemRxiv, 2019, preprint.
     DOI: 10.26434/chemrxiv.8326202.v1
   
   for DFT-D4:
   * E. Caldeweyher, C. Bannwarth and S. Grimme, J. Chem. Phys., 2017,
     147, 034112. DOI: 10.1063/1.4993215
   * E. Caldeweyher, S. Ehlert, A. Hansen, H. Neugebauer, S. Spicher,
     C. Bannwarth and S. Grimme, J. Chem. Phys., 2019, 150, 154122.
     DOI: 10.1063/1.5090222
   
   for sTDA-xTB:
   * S. Grimme and C. Bannwarth, J. Chem. Phys., 2016, 145, 054103.
     DOI: 10.1063/1.4959605
   
   in the mass-spec context:
   * V. Asgeirsson, C. Bauer and S. Grimme, Chem. Sci., 2017, 8, 4879.
     DOI: 10.1039/c7sc00601b
   
   for metadynamics refer to:
   * S. Grimme, J. Chem. Theory Comput., 2019, 155, 2847-2862
     DOI: 10.1021/acs.jctc.9b00143
   
   with help from (in alphabetical order)
   C. Bannwarth, F. Bohle, G. Brandenburg, E. Caldeweyher, M. Checinski,
   S. Dohm, S. Ehlert, S. Ehrlich, F. März, H. Neugebauer, J. Pisarek,
   P. Pracht, P. Shushkov, and S. Spicher.
   
 * started run on 2020/05/12 at 11:44:54.622     

           -------------------------------------------------
          |                Calculation Setup                |
           -------------------------------------------------

          program call               : xtb --input H1C3N1_11_S_2.input H1C3N1_11_S_2.xyz --ohess --molden --namespace H1C3N1_11_S_2 output.out
          calculation namespace      : H1C3N1_11_S_2
          coordinate file            : H1C3N1_11_S_2.xyz
          number of atoms            :                     5
          number of electrons        :                    18
          charge                     :                     0
          spin                       :                   1.0
          first test random number   :      0.86142804086985

   ID    Z sym.   atoms
    1    6 C      1, 3, 4
    2    7 N      2
    3    1 H      5

           -------------------------------------------------
          |                 G F N 2 - x T B                 |
           -------------------------------------------------

        Reference                      10.1021/acs.jctc.8b01176
      * Hamiltonian:
        H0-scaling (s, p, d)           1.850000    2.230000    2.230000
        zeta-weighting                 0.500000
      * Dispersion:
        s8                             2.700000
        a1                             0.520000
        a2                             5.000000
        s9                             5.000000
      * Repulsion:
        kExp                           1.500000    1.000000
        rExp                           1.000000
      * Coulomb:
        alpha                          2.000000
        third order                    shell-resolved
        anisotropic                    true
        a3                             3.000000
        a5                             4.000000
        cn-shift                       1.200000
        cn-exp                         4.000000
        max-rad                        5.000000


          ...................................................
          :                      SETUP                      :
          :.................................................:
          :  # basis functions                  17          :
          :  # atomic orbitals                  17          :
          :  # shells                            9          :
          :  # electrons                        18          :
          :  max. iterations                   250          :
          :  Hamiltonian                  GFN2-xTB          :
          :  restarted?                      false          :
          :  GBSA solvation                  false          :
          :  PC potential                    false          :
          :  electronic temp.          300.0000000     K    :
          :  accuracy                    1.0000000          :
          :  -> integral cutoff          0.2500000E+02      :
          :  -> integral neglect         0.1000000E-07      :
          :  -> SCF convergence          0.1000000E-05 Eh   :
          :  -> wf. convergence          0.1000000E-03 e    :
          :  Broyden damping             0.4000000          :
          ...................................................

 iter      E             dE          RMSdq      gap      omega  full diag
   1     -9.4029797 -0.940298E+01  0.947E+00    0.75       0.0  T
   2     -9.3331375  0.698422E-01  0.741E+00    0.59       1.0  T
   3     -8.3795280  0.953610E+00  0.979E+00    2.11       1.0  T
   4     -8.2103050  0.169223E+00  0.107E+01    1.40       1.0  T
   5     -9.3867128 -0.117641E+01  0.377E+00    0.68       1.0  T
   6     -9.4398351 -0.531223E-01  0.146E+00    0.64       1.0  T
   7     -9.4349423  0.489286E-02  0.152E+00    0.68       1.0  T
   8     -9.4411735 -0.623127E-02  0.316E-01    0.63       1.0  T
   9     -9.4411938 -0.203078E-04  0.284E-01    0.62       1.0  T
  10     -9.4415331 -0.339247E-03  0.215E-01    0.63       1.0  T
  11     -9.4415504 -0.172882E-04  0.108E-01    0.63       1.0  T
  12     -9.4416058 -0.553932E-04  0.224E-02    0.63       2.0  T
  13     -9.4416074 -0.163856E-05  0.168E-02    0.63       2.7  T
  14     -9.4416073  0.116124E-06  0.139E-02    0.63       3.2  T
  15     -9.4416080 -0.701273E-06  0.132E-03    0.63      33.8  T
  16     -9.4416080 -0.729052E-08  0.218E-04    0.63     204.8  T
  17     -9.4416080 -0.283807E-09  0.112E-04    0.63     400.4  T

   *** convergence criteria satisfied after 17 iterations ***

         #    Occupation            Energy/Eh            Energy/eV
      -------------------------------------------------------------
         1        2.0000           -0.6993678             -19.0308
       ...           ...                  ...                  ...
         4        2.0000           -0.5797363             -15.7754
         5        2.0000           -0.5452977             -14.8383
         6        2.0000           -0.5113119             -13.9135
         7        2.0000           -0.5009251             -13.6309
         8        2.0000           -0.4582835             -12.4705
         9        1.0000           -0.4308457             -11.7239
        10        1.0000           -0.3903534             -10.6221 (HOMO)
        11        0.0000           -0.3672477              -9.9933 (LUMO)
        12                         -0.3438178              -9.3558
        13                         -0.3332936              -9.0694
        14                          0.0162558               0.4423
        15                          0.0667310               1.8158
       ...                                ...                  ...
        17                          0.1238639               3.3705
      -------------------------------------------------------------
                  HL-Gap            0.0231057 Eh            0.6287 eV
             Fermi-level           -0.4116825 Eh          -11.2025 eV

 transition dipole moment (au) for excitation:           9          10
     X       Y       Z   
  -0.0112   0.0835   0.0809  total (au/Debye):    0.117   0.297
 dE (eV)             :    1.102
 oscillator strength :  0.52083E-03

 SCC (total)                   0 d,  0 h,  0 min,  0.005 sec
 SCC setup                      ...        0 min,  0.000 sec (  1.895%)
 Dispersion                     ...        0 min,  0.000 sec (  0.331%)
 integral evaluation            ...        0 min,  0.001 sec ( 21.872%)
 zeroth order Hamiltonian       ...        0 min,  0.000 sec (  0.415%)
 iterations                     ...        0 min,  0.002 sec ( 35.097%)
 molecular gradient             ...        0 min,  0.001 sec ( 22.187%)
 printout                       ...        0 min,  0.001 sec ( 17.987%)

         :::::::::::::::::::::::::::::::::::::::::::::::::::::
         ::                     SUMMARY                     ::
         :::::::::::::::::::::::::::::::::::::::::::::::::::::
         :: total energy              -9.390270731020 Eh    ::
         :: gradient norm              0.293752109471 Eh/a0 ::
         :: HOMO-LUMO gap              0.628738486559 eV    ::
         ::.................................................::
         :: SCC energy                -9.441607984218 Eh    ::
         :: -> isotropic ES           -0.028970016941 Eh    ::
         :: -> anisotropic ES         -0.000808549592 Eh    ::
         :: -> anisotropic XC          0.011383094073 Eh    ::
         :: -> dispersion             -0.002240867091 Eh    ::
         :: repulsion energy           0.051337135676 Eh    ::
         :: add. restraining           0.000000000000 Eh    ::
         :::::::::::::::::::::::::::::::::::::::::::::::::::::

      ----------------------------------------------------------- 
     |                   =====================                   |
     |                        A N C O P T                        |
     |                   =====================                   |
     |               Approximate Normal Coordinate               |
     |                Rational Function Optimizer                |
      ----------------------------------------------------------- 

          ...................................................
          :                      SETUP                      :
          :.................................................:
          :   optimization level            normal          :
          :   max. optcycles                   200          :
          :   ANC micro-cycles                  20          :
          :   degrees of freedom                 9          :
          :.................................................:
          :   RF solver                   davidson          :
          :   write xtbopt.log                true          :
          :   linear?                        false          :
          :   energy convergence         0.5000000E-05 Eh   :
          :   grad. convergence          0.1000000E-02 Eh/α :
          :   maximium RF displ.         1.0000000          :
          :   Hlow (freq-cutoff)         0.1000000E-01      :
          :   Hmax (freq-cutoff)         5.0000000          :
          :   S6 in model hess.         20.0000000          :
          ...................................................

generating ANC from model Hessian ...
Using Lindh-Hessian (1995)
 Shifting diagonal of input Hessian by    0.0000000000000000     
 Lowest  eigenvalues of input Hessian
   -0.000000   -0.000000   -0.000000    0.000000    0.000000    0.000000
    0.011991    0.051932    0.082215    0.099154    0.116927    0.621579
    0.950269    0.991343    1.196603
 Highest eigenvalues
    0.099154    0.116927    0.621579    0.950269    0.991343    1.196603


........................................................................
.............................. CYCLE    1 ..............................
........................................................................
   1     -9.4416080 -0.944161E+01  0.376E-05    0.63       0.0  T
   2     -9.4416080  0.476993E-09  0.224E-04    0.63     199.6  T
   3     -9.4416080 -0.440865E-09  0.729E-05    0.63     613.8  T
     SCC iter.                  ...        0 min,  0.000 sec
     gradient                   ...        0 min,  0.001 sec
 * total energy  :    -9.3902707 Eh     change       -0.3592380E-09 Eh
   gradient norm :     0.2937516 Eh/α   predicted     0.0000000E+00 (-100.00%)
   displ. norm   :     0.3455358 α      lambda       -0.9447381E-01
   maximum displ.:     0.2218365 α      in ANC's #6, #7, #5, ...

........................................................................
.............................. CYCLE    2 ..............................
........................................................................
   1     -9.5377900 -0.953779E+01  0.258E+00    1.13       0.0  T
   2     -9.2061394  0.331651E+00  0.621E+00    1.05       1.0  T
   3     -9.5020269 -0.295887E+00  0.273E+00    1.28       1.0  T
   4     -9.5596374 -0.576105E-01  0.114E+00    0.89       1.0  T
   5     -9.5639648 -0.432743E-02  0.556E-01    0.96       1.0  T
   6     -9.5653702 -0.140533E-02  0.182E-01    0.93       1.0  T
   7     -9.5654651 -0.949383E-04  0.869E-02    0.93       1.0  T
   8     -9.5654968 -0.316856E-04  0.180E-02    0.92       2.5  T
   9     -9.5654974 -0.619151E-06  0.957E-03    0.92       4.7  T
  10     -9.5654979 -0.479538E-06  0.130E-03    0.92      34.5  T
  11     -9.5654979 -0.548409E-08  0.782E-04    0.92      57.2  T
  12     -9.5654979 -0.478625E-08  0.680E-05    0.92     657.8  T
     SCC iter.                  ...        0 min,  0.001 sec
     gradient                   ...        0 min,  0.001 sec
 * total energy  :    -9.4688899 Eh     change       -0.7861915E-01 Eh
   gradient norm :     0.1821174 Eh/α   predicted    -0.5287676E-01 ( -32.74%)
   displ. norm   :     0.4847295 α      lambda       -0.7966924E-01
   maximum displ.:     0.2877656 α      in ANC's #7, #6, #1, ...

........................................................................
.............................. CYCLE    3 ..............................
........................................................................
   1     -9.7301942 -0.973019E+01  0.363E+00    2.08       0.0  T
   2     -9.7248091  0.538508E-02  0.294E+00    1.82       1.0  T
   3     -9.6712731  0.535360E-01  0.276E+00    2.35       1.0  T
   4     -9.6809649 -0.969183E-02  0.278E+00    1.55       1.0  T
   5     -9.7405154 -0.595505E-01  0.772E-01    1.94       1.0  T
   6     -9.7423647 -0.184927E-02  0.360E-01    1.99       1.0  T
   7     -9.7422416  0.123094E-03  0.293E-01    2.00       1.0  T
   8     -9.7425359 -0.294353E-03  0.285E-02    2.02       1.6  T
   9     -9.7425364 -0.415077E-06  0.103E-02    2.02       4.4  T
  10     -9.7425364 -0.755270E-07  0.384E-03    2.02      11.6  T
  11     -9.7425365 -0.490315E-07  0.674E-04    2.02      66.3  T
  12     -9.7425365 -0.336979E-08  0.212E-04    2.02     211.3  T
     SCC iter.                  ...        0 min,  0.001 sec
     gradient                   ...        0 min,  0.001 sec
 * total energy  :    -9.4782829 Eh     change       -0.9393011E-02 Eh
   gradient norm :     0.3956530 Eh/α   predicted    -0.4919426E-01 ( 423.73%)
   displ. norm   :     0.3860945 α      lambda       -0.8466678E-01
   maximum displ.:     0.2333189 α      in ANC's #5, #1, #2, ...

........................................................................
.............................. CYCLE    4 ..............................
........................................................................
   1     -9.6552293 -0.965523E+01  0.222E+00    1.24       0.0  T
   2     -9.6437953  0.114340E-01  0.206E+00    1.73       1.0  T
   3     -9.6502680 -0.647273E-02  0.138E+00    1.19       1.0  T
   4     -9.6543497 -0.408174E-02  0.134E+00    1.68       1.0  T
   5     -9.6662515 -0.119018E-01  0.350E-01    1.45       1.0  T
   6     -9.6671291 -0.877609E-03  0.158E-01    1.51       1.0  T
   7     -9.6671185  0.105713E-04  0.539E-02    1.52       1.0  T
   8     -9.6671422 -0.237258E-04  0.974E-03    1.51       4.6  T
   9     -9.6671425 -0.221512E-06  0.201E-03    1.51      22.2  T
  10     -9.6671425 -0.257924E-07  0.745E-04    1.51      60.0  T
  11     -9.6671425 -0.232129E-08  0.142E-04    1.51     315.1  T
     SCC iter.                  ...        0 min,  0.001 sec
     gradient                   ...        0 min,  0.001 sec
 * total energy  :    -9.5037493 Eh     change       -0.2546641E-01 Eh
   gradient norm :     0.1408094 Eh/α   predicted    -0.4864398E-01 (  91.01%)
   displ. norm   :     0.3024232 α      lambda       -0.1493508E-01
   maximum displ.:     0.1983973 α      in ANC's #1, #3, #4, ...

........................................................................
.............................. CYCLE    5 ..............................
........................................................................
   1     -9.6544757 -0.965448E+01  0.124E+00    1.67       0.0  T
   2     -9.6547849 -0.309174E-03  0.717E-01    1.65       1.0  T
   3     -9.6539813  0.803574E-03  0.452E-01    1.61       1.0  T
   4     -9.6523316  0.164969E-02  0.567E-01    1.72       1.0  T
   5     -9.6545385 -0.220689E-02  0.222E-01    1.60       1.0  T
   6     -9.6548658 -0.327306E-03  0.918E-02    1.62       1.0  T
   7     -9.6549086 -0.428477E-04  0.177E-02    1.63       2.5  T
   8     -9.6549095 -0.850056E-06  0.117E-02    1.64       3.8  T
   9     -9.6549102 -0.699743E-06  0.243E-03    1.63      18.4  T
  10     -9.6549102 -0.230559E-07  0.632E-04    1.63      70.7  T
  11     -9.6549102 -0.666438E-09  0.293E-04    1.63     152.6  T
     SCC iter.                  ...        0 min,  0.001 sec
     gradient                   ...        0 min,  0.001 sec
 * total energy  :    -9.5057969 Eh     change       -0.2047629E-02 Eh
   gradient norm :     0.0776213 Eh/α   predicted    -0.8150518E-02 ( 298.05%)
   displ. norm   :     0.2654496 α      lambda       -0.1104691E-01
   maximum displ.:     0.2056895 α      in ANC's #1, #2, #7, ...

........................................................................
.............................. CYCLE    6 ..............................
........................................................................
   1     -9.6902330 -0.969023E+01  0.117E+00    1.77       0.0  T
   2     -9.6899647  0.268266E-03  0.748E-01    1.80       1.0  T
   3     -9.6865890  0.337568E-02  0.791E-01    1.66       1.0  T
   4     -9.6879877 -0.139871E-02  0.553E-01    1.87       1.0  T
   5     -9.6907391 -0.275134E-02  0.539E-02    1.77       1.0  T
   6     -9.6907421 -0.306591E-05  0.330E-02    1.77       1.4  T
   7     -9.6907419  0.246598E-06  0.906E-03    1.78       4.9  T
   8     -9.6907425 -0.628368E-06  0.413E-03    1.77      10.8  T
   9     -9.6907426 -0.436866E-07  0.347E-04    1.77     128.9  T
  10     -9.6907426 -0.633634E-09  0.132E-04    1.77     338.7  T
     SCC iter.                  ...        0 min,  0.001 sec
     gradient                   ...        0 min,  0.001 sec
 * total energy  :    -9.5129398 Eh     change       -0.7142893E-02 Eh
   gradient norm :     0.0310210 Eh/α   predicted    -0.5912663E-02 ( -17.22%)
   displ. norm   :     0.2195984 α      lambda       -0.4660374E-02
   maximum displ.:     0.1110919 α      in ANC's #5, #2, #6, ...

........................................................................
.............................. CYCLE    7 ..............................
........................................................................
   1     -9.6965328 -0.969653E+01  0.102E+00    1.79       0.0  T
   2     -9.6965126  0.201986E-04  0.580E-01    1.87       1.0  T
   3     -9.6936930  0.281958E-02  0.615E-01    1.69       1.0  T
   4     -9.6966661 -0.297308E-02  0.144E-01    1.86       1.0  T
   5     -9.6967393 -0.732565E-04  0.568E-02    1.84       1.0  T
   6     -9.6967503 -0.109104E-04  0.369E-02    1.85       1.2  T
   7     -9.6967554 -0.516819E-05  0.415E-03    1.85      10.8  T
   8     -9.6967554 -0.533002E-08  0.175E-03    1.85      25.6  T
   9     -9.6967554 -0.552802E-08  0.512E-04    1.85      87.3  T
  10     -9.6967554 -0.765999E-09  0.610E-05    1.85     733.4  T
     SCC iter.                  ...        0 min,  0.001 sec
     gradient                   ...        0 min,  0.001 sec
 * total energy  :    -9.5151686 Eh     change       -0.2228737E-02 Eh
   gradient norm :     0.0591772 Eh/α   predicted    -0.2442556E-02 (   9.59%)
   displ. norm   :     0.1307495 α      lambda       -0.2777494E-02
   maximum displ.:     0.0954131 α      in ANC's #1, #7, #8, ...

........................................................................
.............................. CYCLE    8 ..............................
........................................................................
   1     -9.7010942 -0.970109E+01  0.520E-01    1.85       0.0  T
   2     -9.7010825  0.116912E-04  0.355E-01    1.85       1.0  T
   3     -9.7011289 -0.463887E-04  0.259E-01    1.81       1.0  T
   4     -9.7009106  0.218297E-03  0.217E-01    1.88       1.0  T
   5     -9.7013788 -0.468186E-03  0.439E-02    1.83       1.0  T
   6     -9.7013868 -0.802164E-05  0.119E-02    1.83       3.7  T
   7     -9.7013870 -0.173178E-06  0.150E-03    1.83      29.8  T
   8     -9.7013870 -0.664320E-08  0.876E-04    1.83      51.1  T
   9     -9.7013870 -0.199497E-08  0.264E-04    1.83     169.5  T
     SCC iter.                  ...        0 min,  0.001 sec
     gradient                   ...        0 min,  0.001 sec
 * total energy  :    -9.5169563 Eh     change       -0.1787739E-02 Eh
   gradient norm :     0.0226786 Eh/α   predicted    -0.1412490E-02 ( -20.99%)
   displ. norm   :     0.1502460 α      lambda       -0.1834298E-02
   maximum displ.:     0.0924579 α      in ANC's #2, #7, #6, ...

........................................................................
.............................. CYCLE    9 ..............................
........................................................................
   1     -9.7107646 -0.971076E+01  0.640E-01    1.83       0.0  T
   2     -9.7107124  0.521878E-04  0.396E-01    1.84       1.0  T
   3     -9.7099029  0.809464E-03  0.394E-01    1.77       1.0  T
   4     -9.7106246 -0.721681E-03  0.174E-01    1.86       1.0  T
   5     -9.7109067 -0.282052E-03  0.294E-02    1.82       1.5  T
   6     -9.7109082 -0.155872E-05  0.149E-02    1.82       3.0  T
   7     -9.7109089 -0.698762E-06  0.182E-03    1.82      24.5  T
   8     -9.7109089 -0.258471E-07  0.714E-04    1.82      62.6  T
   9     -9.7109089 -0.206816E-08  0.984E-05    1.82     454.5  T
     SCC iter.                  ...        0 min,  0.001 sec
     gradient                   ...        0 min,  0.001 sec
 * total energy  :    -9.5177376 Eh     change       -0.7813111E-03 Eh
   gradient norm :     0.0147904 Eh/α   predicted    -0.9378508E-03 (  20.04%)
   displ. norm   :     0.1758836 α      lambda       -0.1023499E-02
   maximum displ.:     0.1104817 α      in ANC's #1, #5, #7, ...

........................................................................
.............................. CYCLE   10 ..............................
........................................................................
   1     -9.6950620 -0.969506E+01  0.794E-01    1.77       0.0  T
   2     -9.6947068  0.355214E-03  0.527E-01    1.71       1.0  T
   3     -9.6928505  0.185626E-02  0.586E-01    1.85       1.0  T
   4     -9.6947654 -0.191486E-02  0.259E-01    1.69       1.0  T
   5     -9.6953481 -0.582689E-03  0.344E-02    1.75       1.3  T
   6     -9.6953527 -0.459954E-05  0.238E-02    1.76       1.9  T
   7     -9.6953541 -0.140111E-05  0.479E-03    1.76       9.3  T
   8     -9.6953542 -0.184537E-06  0.106E-03    1.76      42.4  T
   9     -9.6953542 -0.848352E-09  0.290E-04    1.76     154.2  T
  10     -9.6953542 -0.852367E-10  0.324E-05    1.76    1379.4  T
     SCC iter.                  ...        0 min,  0.001 sec
     gradient                   ...        0 min,  0.001 sec
 * total energy  :    -9.5175291 Eh     change        0.2084625E-03 Eh
   gradient norm :     0.0339953 Eh/α   predicted    -0.5275796E-03 (-353.08%)
   displ. norm   :     0.1189348 α      lambda       -0.1303222E-02
   maximum displ.:     0.0898339 α      in ANC's #1, #2, #7, ...

........................................................................
.............................. CYCLE   11 ..............................
........................................................................
   1     -9.7082685 -0.970827E+01  0.465E-01    1.85       0.0  T
   2     -9.7079328  0.335736E-03  0.346E-01    1.90       1.0  T
   3     -9.7078206  0.112145E-03  0.323E-01    1.81       1.0  T
   4     -9.7083128 -0.492158E-03  0.146E-01    1.89       1.0  T
   5     -9.7084675 -0.154687E-03  0.160E-02    1.86       2.8  T
   6     -9.7084673  0.123166E-06  0.109E-02    1.86       4.1  T
   7     -9.7084677 -0.363965E-06  0.172E-03    1.86      26.1  T
   8     -9.7084677 -0.153006E-07  0.693E-04    1.86      64.5  T
   9     -9.7084677 -0.180537E-08  0.886E-05    1.86     504.5  T
     SCC iter.                  ...        0 min,  0.001 sec
     gradient                   ...        0 min,  0.001 sec
 * total energy  :    -9.5180379 Eh     change       -0.5087825E-03 Eh
   gradient norm :     0.0095310 Eh/α   predicted    -0.6608270E-03 (  29.88%)
   displ. norm   :     0.0306362 α      lambda       -0.1300480E-03
   maximum displ.:     0.0230322 α      in ANC's #2, #3, #1, ...

........................................................................
.............................. CYCLE   12 ..............................
........................................................................
   1     -9.7071241 -0.970712E+01  0.113E-01    1.82       0.0  T
   2     -9.7071237  0.373148E-06  0.698E-02    1.82       1.0  T
   3     -9.7070934  0.303240E-04  0.657E-02    1.84       1.0  T
   4     -9.7071226 -0.292847E-04  0.189E-02    1.82       2.4  T
   5     -9.7071258 -0.320004E-05  0.447E-03    1.82      10.0  T
   6     -9.7071259 -0.639265E-08  0.209E-03    1.82      21.4  T
   7     -9.7071259 -0.241793E-07  0.480E-04    1.82      93.2  T
   8     -9.7071259 -0.324299E-09  0.671E-05    1.82     666.9  T
     SCC iter.                  ...        0 min,  0.001 sec
     gradient                   ...        0 min,  0.001 sec
 * total energy  :    -9.5180843 Eh     change       -0.4634351E-04 Eh
   gradient norm :     0.0056495 Eh/α   predicted    -0.6508633E-04 (  40.44%)
   displ. norm   :     0.0124579 α      lambda       -0.3229058E-04
   maximum displ.:     0.0065786 α      in ANC's #7, #3, #5, ...

........................................................................
.............................. CYCLE   13 ..............................
........................................................................
   1     -9.7065111 -0.970651E+01  0.516E-02    1.83       0.0  T
   2     -9.7065103  0.808273E-06  0.338E-02    1.82       1.3  T
   3     -9.7065013  0.893294E-05  0.366E-02    1.83       1.2  T
   4     -9.7065107 -0.937989E-05  0.129E-02    1.82       3.5  T
   5     -9.7065120 -0.126608E-05  0.183E-03    1.83      24.4  T
   6     -9.7065120 -0.143850E-08  0.488E-04    1.83      91.6  T
   7     -9.7065120 -0.992427E-09  0.150E-04    1.83     297.7  T
     SCC iter.                  ...        0 min,  0.001 sec
     gradient                   ...        0 min,  0.001 sec
 * total energy  :    -9.5181052 Eh     change       -0.2090880E-04 Eh
   gradient norm :     0.0029323 Eh/α   predicted    -0.1614792E-04 ( -22.77%)
   displ. norm   :     0.0128707 α      lambda       -0.1426663E-04
   maximum displ.:     0.0070037 α      in ANC's #2, #7, #1, ...

........................................................................
.............................. CYCLE   14 ..............................
........................................................................
   1     -9.7064179 -0.970642E+01  0.418E-02    1.83       0.0  T
   2     -9.7064180 -0.876284E-07  0.238E-02    1.83       1.9  T
   3     -9.7064178  0.221824E-06  0.692E-03    1.83       6.5  T
   4     -9.7064181 -0.258159E-06  0.208E-03    1.83      21.5  T
   5     -9.7064180  0.230049E-07  0.232E-03    1.83      19.3  T
   6     -9.7064181 -0.400467E-07  0.224E-04    1.83     199.6  T
   7     -9.7064181 -0.206859E-09  0.936E-05    1.83     477.8  T
     SCC iter.                  ...        0 min,  0.001 sec
     gradient                   ...        0 min,  0.001 sec
 * total energy  :    -9.5181151 Eh     change       -0.9947368E-05 Eh
   gradient norm :     0.0016327 Eh/α   predicted    -0.7134534E-05 ( -28.28%)
   displ. norm   :     0.0195476 α      lambda       -0.9098921E-05
   maximum displ.:     0.0130585 α      in ANC's #2, #1, #6, ...

........................................................................
.............................. CYCLE   15 ..............................
........................................................................
   1     -9.7064603 -0.970646E+01  0.689E-02    1.83       0.0  T
   2     -9.7064603 -0.577604E-08  0.412E-02    1.83       1.1  T
   3     -9.7064542  0.609894E-05  0.311E-02    1.82       1.4  T
   4     -9.7064600 -0.578322E-05  0.948E-03    1.83       4.7  T
   5     -9.7064608 -0.800257E-06  0.231E-03    1.83      19.4  T
   6     -9.7064608 -0.115485E-08  0.116E-03    1.83      38.4  T
   7     -9.7064608 -0.827738E-08  0.111E-04    1.83     403.1  T
   8     -9.7064608 -0.121378E-10  0.220E-05    1.83    2034.7  T
     SCC iter.                  ...        0 min,  0.001 sec
     gradient                   ...        0 min,  0.001 sec
 * total energy  :    -9.5181211 Eh     change       -0.6003007E-05 Eh
   gradient norm :     0.0011944 Eh/α   predicted    -0.4548583E-05 ( -24.23%)
   displ. norm   :     0.0040769 α      lambda       -0.2073990E-05
   maximum displ.:     0.0031571 α      in ANC's #3, #1, #7, ...

........................................................................
.............................. CYCLE   16 ..............................
........................................................................
   1     -9.7066618 -0.970666E+01  0.175E-02    1.83       0.0  T
   2     -9.7066618 -0.215733E-07  0.105E-02    1.83       4.2  T
   3     -9.7066617  0.137560E-06  0.539E-03    1.83       8.3  T
   4     -9.7066618 -0.146492E-06  0.149E-03    1.83      30.1  T
   5     -9.7066618 -0.363335E-08  0.929E-04    1.83      48.2  T
   6     -9.7066618 -0.372127E-08  0.620E-04    1.83      72.1  T
     SCC iter.                  ...        0 min,  0.000 sec
     gradient                   ...        0 min,  0.001 sec
 * total energy  :    -9.5181231 Eh     change       -0.1935041E-05 Eh
   gradient norm :     0.0006635 Eh/α   predicted    -0.1037635E-05 ( -46.38%)
   displ. norm   :     0.0080688 α      lambda       -0.1232726E-05
   maximum displ.:     0.0071915 α      in ANC's #1, #5, #4, ...

   *** GEOMETRY OPTIMIZATION CONVERGED AFTER 16 ITERATIONS ***

------------------------------------------------------------------------
 total energy gain   :        -0.1278523 Eh      -80.2286 kcal/mol
 total RMSD          :         0.6750591 a0        0.3572 Å
 total power (kW/mol):       -20.9797659 (step)-7541.2474 (real)
------------------------------------------------------------------------

 ANCopt (total)                0 d,  0 h,  0 min,  0.045 sec
 optimizer setup                ...        0 min,  0.000 sec (  0.144%)
 model hessian                  ...        0 min,  0.000 sec (  0.193%)
 ANC generation                 ...        0 min,  0.000 sec (  0.115%)
 coordinate transformation      ...        0 min,  0.000 sec (  0.069%)
 single point calculation       ...        0 min,  0.043 sec ( 96.874%)
 optimization log               ...        0 min,  0.000 sec (  0.816%)
 hessian update                 ...        0 min,  0.000 sec (  0.068%)
 rational function              ...        0 min,  0.000 sec (  0.732%)

================
 final structure:
================
5
 xtb: 6.2.2 (9d81278992624c895f80dd42a50cac0aa55982e2)
C         1.92221678835202   -0.47025219180565    0.10057208567721
N         0.80268237836697   -0.16104635587734    0.02796536421376
C        -0.53896850837299    0.11358989678488   -0.02241360933610
C        -1.02351451494566    1.23852689221200   -0.43225276831798
H        -1.16241514340034   -0.72081724131390    0.32612892776312

 Bond Distances (Angstroems)
 ---------------------------
C1-N2=1.1637         N2-C1=1.1637         N2-C3=1.3704         C3-N2=1.3704         C3-C4=1.2916         C3-H5=1.0984         
C4-C3=1.2916         H5-C3=1.0984         
 C  H  Rav=1.0984 sigma=0.0000  Rmin=1.0984  Rmax=1.0984     1
 C  C  Rav=1.2916 sigma=0.0000  Rmin=1.2916  Rmax=1.2916     1
 N  C  Rav=1.2671 sigma=0.1033  Rmin=1.1637  Rmax=1.3704     2

 selected bond angles (degree)
 --------------------
C3-N2-C1=175.86                C4-C3-N2=123.61                H5-C3-N2=113.07                H5-C3-C4=123.33                

 selected dihedral angles (degree)
 ---------------------------------
C4-C3-N2-C1=179.99            H5-C3-N2-C1=  0.24            
           -------------------------------------------------
          |                Final Singlepoint                |
           -------------------------------------------------

          ...................................................
          :                      SETUP                      :
          :.................................................:
          :  # basis functions                  17          :
          :  # atomic orbitals                  17          :
          :  # shells                            9          :
          :  # electrons                        18          :
          :  max. iterations                   250          :
          :  Hamiltonian                  GFN2-xTB          :
          :  restarted?                      false          :
          :  GBSA solvation                  false          :
          :  PC potential                    false          :
          :  electronic temp.          300.0000000     K    :
          :  accuracy                    1.0000000          :
          :  -> integral cutoff          0.2500000E+02      :
          :  -> integral neglect         0.1000000E-07      :
          :  -> SCF convergence          0.1000000E-05 Eh   :
          :  -> wf. convergence          0.1000000E-03 e    :
          :  Broyden damping             0.4000000          :
          ...................................................

 iter      E             dE          RMSdq      gap      omega  full diag
   1     -9.7066618 -0.970666E+01  0.201E-04    1.83       0.0  T
   2     -9.7066618  0.199307E-10  0.113E-04    1.83     394.9  T
   3     -9.7066618  0.195977E-09  0.179E-04    1.83     249.8  T

   *** convergence criteria satisfied after 3 iterations ***

         #    Occupation            Energy/Eh            Energy/eV
      -------------------------------------------------------------
         1        2.0000           -0.6910290             -18.8039
       ...           ...                  ...                  ...
         4        2.0000           -0.5746238             -15.6363
         5        2.0000           -0.5439384             -14.8013
         6        2.0000           -0.5027786             -13.6813
         7        2.0000           -0.4590404             -12.4911
         8        2.0000           -0.4431835             -12.0596
         9        1.0000           -0.4206361             -11.4461
        10        1.0000           -0.3449272              -9.3859 (HOMO)
        11                         -0.2776707              -7.5558 (LUMO)
        12                         -0.2407310              -6.5506
        13                         -0.1738681              -4.7312
        14                          0.0782471               2.1292
        15                          0.2011955               5.4748
       ...                                ...                  ...
        17                          0.9969688              27.1289
      -------------------------------------------------------------
                  HL-Gap            0.0672565 Eh            1.8301 eV
             Fermi-level           -0.3716044 Eh          -10.1119 eV

 transition dipole moment (au) for excitation:           9          10
     X       Y       Z   
  -0.0721   0.1129  -0.0406  total (au/Debye):    0.140   0.356
 dE (eV)             :    2.060
 oscillator strength :  0.13981E-02

 SCC (total)                   0 d,  0 h,  0 min,  0.003 sec
 SCC setup                      ...        0 min,  0.000 sec (  1.442%)
 Dispersion                     ...        0 min,  0.000 sec (  0.265%)
 integral evaluation            ...        0 min,  0.001 sec ( 31.907%)
 zeroth order Hamiltonian       ...        0 min,  0.000 sec (  0.421%)
 iterations                     ...        0 min,  0.000 sec ( 10.459%)
 molecular gradient             ...        0 min,  0.001 sec ( 31.907%)
 printout                       ...        0 min,  0.001 sec ( 23.396%)

         :::::::::::::::::::::::::::::::::::::::::::::::::::::
         ::                     SUMMARY                     ::
         :::::::::::::::::::::::::::::::::::::::::::::::::::::
         :: total energy              -9.518123064530 Eh    ::
         :: gradient norm              0.000683288686 Eh/a0 ::
         :: HOMO-LUMO gap              1.830142549469 eV    ::
         ::.................................................::
         :: SCC energy                -9.706661848871 Eh    ::
         :: -> isotropic ES           -0.009128837608 Eh    ::
         :: -> anisotropic ES         -0.000577643046 Eh    ::
         :: -> anisotropic XC          0.015397406586 Eh    ::
         :: -> dispersion             -0.002230417608 Eh    ::
         :: repulsion energy           0.188538720670 Eh    ::
         :: add. restraining           0.000000000000 Eh    ::
         :::::::::::::::::::::::::::::::::::::::::::::::::::::

           ------------------------------------------------- 
          |                Numerical Hessian                |
           ------------------------------------------------- 
step length          :   0.00500
SCC accuracy         :   0.30000
Hessian scale factor :   1.00000
frozen atoms in %    :   0.00000    0
RMS gradient         :   0.00068
estimated CPU  time      0.00 min
estimated wall time      0.00 min

writing file <hessian>.

 projected vibrational frequencies (cm-1)
eigval :       -0.00    -0.00    -0.00     0.00     0.00     0.00
eigval :      203.55   274.23   498.44   535.08   955.89  1156.53
eigval :     1646.66  2153.58  2783.59
           -------------------------------------------------
          |                Property Printout                |
           -------------------------------------------------

    * Orbital Energies and Occupations

         #    Occupation            Energy/Eh            Energy/eV
      -------------------------------------------------------------
         1        2.0000           -0.6910285             -18.8038
         2        2.0000           -0.6684431             -18.1893
         3        2.0000           -0.6155271             -16.7493
         4        2.0000           -0.5746238             -15.6363
         5        2.0000           -0.5439380             -14.8013
         6        2.0000           -0.5027782             -13.6813
         7        2.0000           -0.4590391             -12.4911
         8        2.0000           -0.4431839             -12.0596
         9        1.0000           -0.4206369             -11.4461
        10        1.0000           -0.3449284              -9.3860 (HOMO)
        11                         -0.2776704              -7.5558 (LUMO)
        12                         -0.2407297              -6.5506
        13                         -0.1738680              -4.7312
        14                          0.0782471               2.1292
        15                          0.2011953               5.4748
        16                          0.6399363              17.4136
        17                          0.9969696              27.1289
      -------------------------------------------------------------
                  HL-Gap            0.0672580 Eh            1.8302 eV
             Fermi-level           -0.3716049 Eh          -10.1119 eV

     #   Z        covCN         q      C6AA      α(0)
     1   6 C      0.913    -0.105    38.778    10.423
     2   7 N      1.834     0.049    21.048     6.799
Molecule has the following symmetry elements: (sigma) 
It seems to be the Cs point group
     3   6 C      2.816     0.053    26.797     8.482
     4   6 C      0.994    -0.095    39.013    10.498
     5   1 H      0.923     0.098     1.803     2.100

 Mol. C6AA /au·bohr⁶  :        554.842978
 Mol. C8AA /au·bohr⁸  :      14644.555901
 Mol. α(0) /au        :         38.300367


Wiberg/Mayer (AO) data.
largest (>0.10) Wiberg bond orders for each atom
          total WBO             WBO to atom ...
     1  C   2.809        N    2 2.554    C    4 0.180
     2  N   3.624        C    1 2.554    C    3 1.033
     3  C   3.856        C    4 1.917    N    2 1.033    H    5 0.856
     4  C   2.139        C    3 1.917    C    1 0.180
     5  H   0.888        C    3 0.856

MOs/occ written to file <molden.input>


molecular dipole:
                 x           y           z       tot (Debye)
 q only:       -0.395      -0.265       0.118
   full:       -0.721      -0.222       0.115       1.940
molecular quadrupole (traceless):
                xx          xy          yy          xz          yz          zz
 q only:       -0.883       1.543       0.154      -0.524       0.173       0.730
  q+dip:       -2.362       2.095       1.624      -0.684      -0.519       0.737
   full:       -3.592       2.913       1.611      -0.887       0.001       1.981

           -------------------------------------------------
          |                Geometry Summary                 |
           -------------------------------------------------

      molecular mass/u    :       51.0468517
   center of mass at/Å    :        0.2819367       0.1490688      -0.0692026
  moments of inertia/u·Å² :        0.6995210E+01   0.8301630E+02   0.9001149E+02
rotational constants/cm⁻¹ :        0.2409882E+01   0.2030641E+00   0.1872831E+00

 * 4 selected distances

     #   Z        #   Z                                     value/Å
     1   6 C      2   7 N                                 1.1637170
     2   7 N      3   6 C                                 1.3703978 (max)
     3   6 C      4   6 C                                 1.2916022
     3   6 C      5   1 H                                 1.0983637 (min)

 * 3 distinct bonds (by element types)

   Z      Z             #   av. dist./Å        max./Å        min./Å
   1 H    6 C           1     1.0983637     1.0983637     1.0983637
   6 C    6 C           1     1.2916022     1.2916022     1.2916022
   6 C    7 N           2     1.2670574     1.3703978     1.1637170

           -------------------------------------------------
          |               Frequency Printout                |
           -------------------------------------------------
 projected vibrational frequencies (cm-1)
eigval :       -0.00    -0.00    -0.00     0.00     0.00     0.00
eigval :      203.55   274.23   498.44   535.08   955.89  1156.53
eigval :     1646.66  2153.58  2783.59
 reduced masses (amu)
   1: 12.13   2: 12.14   3: 12.26   4: 12.54   5: 11.77   6:  8.38   7: 12.39   8: 12.66
   9:  5.61  10: 12.61  11: 11.88  12:  2.15  13: 11.90  14: 13.01  15:  1.71
 IR intensities (amu)
   1:  0.06   2:  0.06   3:  0.06   4:  0.09   5:  0.16   6:  0.27   7:  0.34   8:  0.07
   9:  0.14  10:  0.26  11:  0.05  12:  0.11  13:  0.22  14:  1.00  15:  0.09
 Raman intensities (amu)
   1:  0.00   2:  0.00   3:  0.00   4:  0.00   5:  0.00   6:  0.00   7:  0.00   8:  0.00
   9:  0.00  10:  0.00  11:  0.00  12:  0.00  13:  0.00  14:  0.00  15:  0.00
 output can be read by thermo (or use thermo option).
 writing <g98.out> molden fake output.
 recommended (thermochemical) frequency scaling factor: 1.0
           -------------------------------------------------
          |             Thermodynamic Functions             |
           -------------------------------------------------

cs  symmetry found (for desy threshold:  0.10E+00) used in thermo

          ...................................................
          :                      SETUP                      :
          :.................................................:
          :  # frequencies                           9      :
          :  # imaginary freq.                       0      :
          :  linear?                             false      :
          :  only rotor calc.                    false      :
          :  symmetry                               cs      :
          :  rotational number                       1      :
          :  scaling factor                  1.0000000      :
          :  rotor cutoff                   50.0000000 cm⁻¹ :
          :  imag. cutoff                  -20.0000000 cm⁻¹ :
          :.................................................:

    mode    ω/cm⁻¹     T·S(HO)/kcal·mol⁻¹    T·S(FR)/kcal·mol⁻¹   T·S(vib)
   ------------------------------------------------------------------------
       1    203.55    -0.00000 ( 99.64%)     0.01226 (  0.36%)     0.00004
       2    274.23    -0.00000 ( 99.89%)     0.01522 (  0.11%)     0.00002
   ------------------------------------------------------------------------

   temp. (K)  partition function   enthalpy   heat capacity  entropy
                                   cal/mol     cal/K/mol   cal/K/mol   J/K/mol
 298.15  VIB   2.63                  941.172      6.697      5.077
         ROT  0.175E+05              888.752      2.981     22.392
         INT  0.459E+05             1829.925      9.677     27.469
         TR   0.353E+27             1481.254      4.968     37.697
         TOT                        3311.1787    14.6456    65.1660   272.6546

   temp. (K)  partition function   enthalpy   heat capacity  entropy
                                   cal/mol     cal/K/mol   cal/K/mol   J/K/mol
 120.00  VIB   1.14                   92.109      2.421      1.036
         ROT  0.446E+04              357.707      2.981     19.679
         INT  0.510E+04              449.816      5.402     20.715
         TR   0.901E+26              596.178      4.968     33.177
         TOT                        1045.9942    10.3702    53.8922   225.4850

   temp. (K)  partition function   enthalpy   heat capacity  entropy
                                   cal/mol     cal/K/mol   cal/K/mol   J/K/mol
 100.00  VIB   1.08                   50.134      1.772      0.655
         ROT  0.339E+04              298.089      2.981     19.136
         INT  0.366E+04              348.223      4.753     19.791
         TR   0.685E+26              496.815      4.968     32.272
         TOT                         845.0379     9.7210    52.0625   217.8296

   temp. (K)  partition function   enthalpy   heat capacity  entropy
                                   cal/mol     cal/K/mol   cal/K/mol   J/K/mol
  80.00  VIB   1.03                   21.339      1.108      0.336
         ROT  0.243E+04              238.471      2.981     18.471
         INT  0.251E+04              259.811      4.089     18.807
         TR   0.490E+26              397.452      4.968     31.164
         TOT                         657.2626     9.0568    49.9705   209.0766

   temp. (K)  partition function   enthalpy   heat capacity  entropy
                                   cal/mol     cal/K/mol   cal/K/mol   J/K/mol
  60.00  VIB   1.01                    5.558      0.488      0.112
         ROT  0.158E+04              178.853      2.981     17.613
         INT  0.159E+04              184.412      3.469     17.726
         TR   0.319E+26              298.089      4.968     29.735
         TOT                         482.5005     8.4367    47.4609   198.5765

   temp. (K)  partition function   enthalpy   heat capacity  entropy
                                   cal/mol     cal/K/mol   cal/K/mol   J/K/mol
  40.00  VIB   1.00                    0.426      0.081      0.012
         ROT   858.                  119.236      2.981     16.405
         INT   859.                  119.661      3.061     16.417
         TR   0.173E+26              198.726      4.968     27.722
         TOT                         318.3875     8.0296    44.1387   184.6762

   temp. (K)  partition function   enthalpy   heat capacity  entropy
                                   cal/mol     cal/K/mol   cal/K/mol   J/K/mol
  20.00  VIB   1.00                    0.000      0.000     -0.003
         ROT   303.                   59.618      2.981     14.338
         INT   303.                   59.618      2.981     14.335
         TR   0.613E+25               99.363      4.968     24.280
         TOT                         158.9811     7.9492    38.6151   161.5656

   temp. (K)  partition function   enthalpy   heat capacity  entropy
                                   cal/mol     cal/K/mol   cal/K/mol   J/K/mol
  10.00  VIB   1.00                    0.000      0.000     -0.007
         ROT   107.                   29.809      2.981     12.272
         INT   107.                   29.809      2.981     12.266
         TR   0.217E+25               49.681      4.968     20.838
         TOT                          79.4904     7.9490    33.1035   138.5051

       T/K    H(0)-H(T)+PV         H(T)/Eh          T*S/Eh         G(T)/Eh
   ------------------------------------------------------------------------
    298.15    0.527670E-02    0.285312E-01    0.309625E-01   -0.243130E-02
    120.00    0.166690E-02    0.249214E-01    0.103059E-01    0.146154E-01
    100.00    0.134665E-02    0.246011E-01    0.829669E-02    0.163044E-01
     80.00    0.104741E-02    0.243019E-01    0.637065E-02    0.179312E-01
     60.00    0.768913E-03    0.240234E-01    0.453803E-02    0.194854E-01
     40.00    0.507383E-03    0.237619E-01    0.281358E-02    0.209483E-01
     20.00    0.253352E-03    0.235078E-01    0.123074E-02    0.222771E-01
     10.00    0.126676E-03    0.233811E-01    0.527538E-03    0.228536E-01 (used)
   ------------------------------------------------------------------------

         :::::::::::::::::::::::::::::::::::::::::::::::::::::
         ::                  THERMODYNAMIC                  ::
         :::::::::::::::::::::::::::::::::::::::::::::::::::::
         :: total free energy          -9.495269455189 Eh   ::
         ::.................................................::
         :: total energy               -9.518123065295 Eh   ::
         :: zero point energy           0.023254472264 Eh   ::
         :: G(RRHO) w/o ZPVE           -0.000400862158 Eh   ::
         :: G(RRHO) contrib.            0.022853610105 Eh   ::
         :::::::::::::::::::::::::::::::::::::::::::::::::::::

optimized geometry written to: xtbopt.xyz


           -------------------------------------------------
          | TOTAL ENERGY               -9.518123065295 Eh   |
          | TOTAL ENTHALPY             -9.494741917015 Eh   |
          | TOTAL FREE ENERGY          -9.495269455189 Eh   |
          | GRADIENT NORM               0.000682814491 Eh/α |
          | HOMO-LUMO GAP               1.830183070657 eV   |
           -------------------------------------------------

------------------------------------------------------------------------
 * finished run on 2020/05/12 at 11:44:54.772     
------------------------------------------------------------------------
 total:
 * wall-time:     0 d,  0 h,  0 min,  0.149 sec
 *  cpu-time:     0 d,  0 h,  0 min,  0.148 sec
 * ratio c/w:     0.999 speedup
 SCF:
 * wall-time:     0 d,  0 h,  0 min,  0.005 sec
 *  cpu-time:     0 d,  0 h,  0 min,  0.005 sec
 * ratio c/w:     1.000 speedup
 ANC optimizer:
 * wall-time:     0 d,  0 h,  0 min,  0.048 sec
 *  cpu-time:     0 d,  0 h,  0 min,  0.048 sec
 * ratio c/w:     1.000 speedup
 numerical hessian:
 * wall-time:     0 d,  0 h,  0 min,  0.078 sec
 *  cpu-time:     0 d,  0 h,  0 min,  0.078 sec
 * ratio c/w:     0.998 speedup

