[Molden Format]
[Title]
[Atoms] AU
C      1     6  0.28353066758322E+01 -0.92007063931592E-01 -0.26457603395968E+00
N      2     7 -0.24491418400526E+00  0.79475820720483E-02  0.22853659114990E-01
H      3     1 -0.71107072520360E+00 -0.37296608586982E+00  0.18531383541424E+01
H      4     1 -0.85784110154761E+00  0.17684174086469E+01 -0.46438937682449E+00
H      5     1 -0.10214825548083E+01 -0.13113918409110E+01 -0.11470284921925E+01
[GTO]
           1 0
 s           4   1.0000000000000000     
   51.049363095579913      -0.16312063210127389     
   8.7911227406887544      -0.19911024581000730     
  0.70640422258929825       0.31882047753655751     
  0.26922813413411617       0.12706504184240380     
 p           4   1.0000000000000000     
   5.8263656140800002       0.73716451545209605     
   1.5106896018720002       0.68216371614850257     
  0.53256483288000001       0.35783053929253711     
  0.21202323690600003        5.3983030275847881E-002

           2 0
 s           4   1.0000000000000000     
   63.594024466941008      -0.19234388414721629     
   10.951417231523665      -0.23478107924953728     
  0.87999310257376984       0.37593753901700888     
  0.33538715296521110       0.14982889271862770     
 p           4   1.0000000000000000     
   7.2965040481495080       0.97658666315667420     
   1.8918745450712575       0.90372226730345739     
  0.66694432110824120       0.47404958461536373     
  0.26552202674130870        7.1516067715011844E-002

           3 0
 s           3   1.0000000000000000     
   3.3702276975336001       0.27359110588908298     
  0.61389118221497996       0.26460540653860526     
  0.16614291148415999        8.2465947534082318E-002

           4 0
 s           3   1.0000000000000000     
   3.3702276975336001       0.27359110588908298     
  0.61389118221497996       0.26460540653860526     
  0.16614291148415999        8.2465947534082318E-002

           5 0
 s           3   1.0000000000000000     
   3.3702276975336001       0.27359110588908298     
  0.61389118221497996       0.26460540653860526     
  0.16614291148415999        8.2465947534082318E-002

[MO]
Sym=     1a
Ene=  -0.66050768798428428     
Spin= Alpha
Occup=     2.00000000
           1   7.9372388601151422E-002
           2  -3.9587755577897926E-002
           3   1.2846416955880134E-003
           4   3.6941173725992212E-003
           5  0.61158484966679350     
           6 -0.11497304638652850     
           7   3.7309289393553202E-003
           8   1.0728671610718891E-002
           9  0.22297191646986897     
          10  0.22297191592333315     
          11  0.22297190938766193     
Sym=     2a
Ene=  -0.57192364561566855     
Spin= Alpha
Occup=     2.00000000
           1  -9.3548056411902848E-008
           2   1.6608565931543733E-003
           3   5.4927030578006290E-002
           4  -1.3028601427615900E-003
           5  -2.5352494976886992E-008
           6   2.0080338170927321E-002
           7  0.66410007316066777     
           8  -1.5752307505047497E-002
           9 -0.10094352434793924     
          10  0.40372872214788896     
          11 -0.30278515551856344     
Sym=     3a
Ene=  -0.57192364413685137     
Spin= Alpha
Occup=     2.00000000
           1   4.5071682798497701E-008
           2  -5.1427490487331541E-003
           3  -1.1423165938309161E-003
           4  -5.4714549506155626E-002
           5   2.1203124565932214E-008
           6  -6.2178664574016461E-002
           7  -1.3811284791897985E-002
           8 -0.66153105027184900     
           9 -0.40790598504473025     
          10  0.11653331705665398     
          11  0.29137264474370489     
Sym=     4a
Ene=  -0.56134033447317211     
Spin= Alpha
Occup=     2.00000000
           1 -0.59976737066163133     
           2  0.14067206008679053     
           3  -4.5648856907159613E-003
           4  -1.3126766654175724E-002
           5 -0.13737830765205514     
           6 -0.60556611766653023     
           7   1.9650794131890161E-002
           8   5.6508132094526972E-002
           9   8.2506331813143291E-002
          10   8.2506292286886246E-002
          11   8.2506420701632097E-002
Sym=     5a
Ene=  -0.40638155928877001     
Spin= Alpha
Occup=     2.00000000
           1 -0.76936939818668182     
           2 -0.38980215196951601     
           3   1.2649267721425448E-002
           4   3.6374245927434740E-002
           5  0.27772750780952860     
           6  0.47512013643028184     
           7  -1.5417866865956113E-002
           8  -4.4335660385910837E-002
           9  -6.4657307329839722E-002
          10  -6.4657310364333975E-002
          11  -6.4657310286381942E-002
Sym=     6a
Ene=  -0.21777346359069918     
Spin= Alpha
Occup=     1.00000000
           1  -3.9660189680168661E-010
           2   2.3068210242853746E-002
           3 -0.84050831055699249     
           4  0.53949852733097259     
           5  -1.3725531978949033E-009
           6  -7.3484877301680115E-004
           7   2.6774874278358798E-002
           8  -1.7186035409083769E-002
           9  -9.2855170730964567E-002
          10  0.12578098716488362     
          11  -3.2925815343023433E-002
Sym=     7a
Ene=  -0.21777346314526072     
Spin= Alpha
Occup=     1.00000000
           1   4.2226448274360853E-010
           2   9.5473899792442682E-002
           3  0.53902688960944567     
           4  0.83569119356006016     
           5   1.4356256029504209E-009
           6  -3.0413797815600553E-003
           7  -1.7171013228447492E-002
           8  -2.6621426216902128E-002
           9  -9.1629415674384582E-002
          10  -3.4600228574238077E-002
          11  0.12622964099270442     
Sym=     8a
Ene=   -6.7272058122924139E-002
Spin= Alpha
Occup=     0.00000000
           1 -0.19325201007429532     
           2  0.79192409891503190     
           3  -2.5698320023407387E-002
           4  -7.3898109151869756E-002
           5  0.89472500408729561     
           6  0.21667969617890398     
           7  -7.0313436331838749E-003
           8  -2.0219379386785127E-002
           9 -0.32356777947839332     
          10 -0.32356779739370256     
          11 -0.32356776649070668     
Sym=     9a
Ene=    2.4914585289268990E-002
Spin= Alpha
Occup=     0.00000000
           1 -0.27489405358232594     
           2  0.57637983293275385     
           3  -1.8703798328427033E-002
           4  -5.3784672122353369E-002
           5 -0.64763890850977313     
           6  0.74353883718747094     
           7  -2.4128191732197435E-002
           8  -6.9383072883822450E-002
           9  0.49863039664797332     
          10  0.49863039500166473     
          11  0.49863037677083016     
Sym=    10a
Ene=   0.15429551933369673     
Spin= Alpha
Occup=     0.00000000
           1   2.9283495350391420E-009
           2   7.2756140429420827E-003
           3  -2.4840803033485365E-002
           4   8.6607159702324923E-002
           5   6.0780712797653411E-009
           6  -8.0196999586312573E-002
           7  0.27381274799972910     
           8 -0.95464489960930343     
           9  0.99962133144118914     
          10 -0.54898475255643064     
          11 -0.45063659115199833     
Sym=    11a
Ene=   0.15429552916376363     
Spin= Alpha
Occup=     0.00000000
           1   1.9933300602988596E-009
           2  -5.1036146475033611E-003
           3  -8.6863189219258910E-002
           4  -2.4485493343267307E-002
           5  -2.2917729407361686E-008
           6   5.6255532075323023E-002
           7  0.95746705581678504     
           8  0.26989632808031289     
           9  -5.6781327418330578E-002
          10 -0.83730678978185691     
          11  0.89408815467022185     
