 Entering Gaussian System, Link 0=g16
 Initial command:
 /applis/site/cecic/gaussian16/B.01/nehalem/g16/l1.exe "/bettik/tinaccil/g16/12192533_H2CO_1/Gau-185365.inp" -scrdir="/bettik/tinaccil/g16/12192533_H2CO_1/"
 Entering Link 1 = /applis/site/cecic/gaussian16/B.01/nehalem/g16/l1.exe PID=    185367.
  
 Copyright (c) 1988-2017, Gaussian, Inc.  All Rights Reserved.
  
 This is part of the Gaussian(R) 16 program.  It is based on
 the Gaussian(R) 09 system (copyright 2009, Gaussian, Inc.),
 the Gaussian(R) 03 system (copyright 2003, Gaussian, Inc.),
 the Gaussian(R) 98 system (copyright 1998, Gaussian, Inc.),
 the Gaussian(R) 94 system (copyright 1995, Gaussian, Inc.),
 the Gaussian 92(TM) system (copyright 1992, Gaussian, Inc.),
 the Gaussian 90(TM) system (copyright 1990, Gaussian, Inc.),
 the Gaussian 88(TM) system (copyright 1988, Gaussian, Inc.),
 the Gaussian 86(TM) system (copyright 1986, Carnegie Mellon
 University), and the Gaussian 82(TM) system (copyright 1983,
 Carnegie Mellon University). Gaussian is a federally registered
 trademark of Gaussian, Inc.
  
 This software contains proprietary and confidential information,
 including trade secrets, belonging to Gaussian, Inc.
  
 This software is provided under written license and may be
 used, copied, transmitted, or stored only in accord with that
 written license.
  
 The following legend is applicable only to US Government
 contracts under FAR:
  
                    RESTRICTED RIGHTS LEGEND
  
 Use, reproduction and disclosure by the US Government is
 subject to restrictions as set forth in subparagraphs (a)
 and (c) of the Commercial Computer Software - Restricted
 Rights clause in FAR 52.227-19.
  
 Gaussian, Inc.
 340 Quinnipiac St., Bldg. 40, Wallingford CT 06492
  
  
 ---------------------------------------------------------------
 Warning -- This program may not be used in any manner that
 competes with the business of Gaussian, Inc. or will provide
 assistance to any competitor of Gaussian, Inc.  The licensee
 of this program is prohibited from giving any competitor of
 Gaussian, Inc. access to this program.  By using this program,
 the user acknowledges that Gaussian, Inc. is engaged in the
 business of creating and licensing software in the field of
 computational chemistry and represents and warrants to the
 licensee that it is not a competitor of Gaussian, Inc. and that
 it will not use this program in any manner prohibited above.
 ---------------------------------------------------------------
  

 Cite this work as:
 Gaussian 16, Revision B.01,
 M. J. Frisch, G. W. Trucks, H. B. Schlegel, G. E. Scuseria, 
 M. A. Robb, J. R. Cheeseman, G. Scalmani, V. Barone, 
 G. A. Petersson, H. Nakatsuji, X. Li, M. Caricato, A. V. Marenich, 
 J. Bloino, B. G. Janesko, R. Gomperts, B. Mennucci, H. P. Hratchian, 
 J. V. Ortiz, A. F. Izmaylov, J. L. Sonnenberg, D. Williams-Young, 
 F. Ding, F. Lipparini, F. Egidi, J. Goings, B. Peng, A. Petrone, 
 T. Henderson, D. Ranasinghe, V. G. Zakrzewski, J. Gao, N. Rega, 
 G. Zheng, W. Liang, M. Hada, M. Ehara, K. Toyota, R. Fukuda, 
 J. Hasegawa, M. Ishida, T. Nakajima, Y. Honda, O. Kitao, H. Nakai, 
 T. Vreven, K. Throssell, J. A. Montgomery, Jr., J. E. Peralta, 
 F. Ogliaro, M. J. Bearpark, J. J. Heyd, E. N. Brothers, K. N. Kudin, 
 V. N. Staroverov, T. A. Keith, R. Kobayashi, J. Normand, 
 K. Raghavachari, A. P. Rendell, J. C. Burant, S. S. Iyengar, 
 J. Tomasi, M. Cossi, J. M. Millam, M. Klene, C. Adamo, R. Cammi, 
 J. W. Ochterski, R. L. Martin, K. Morokuma, O. Farkas, 
 J. B. Foresman, and D. J. Fox, Gaussian, Inc., Wallingford CT, 2016.
 
 ******************************************
 Gaussian 16:  ES64L-G16RevB.01 20-Dec-2017
                25-Sep-2020 
 ******************************************
 %nosave
 %nproc=8
 Will use up to    8 processors via shared memory.
 %mem=2gb
 %chk=input
 --------------------------------------------------------
 #P M062X/cc-pvtz nosymm opt(noeigentest) optcyc=120 freq
 --------------------------------------------------------
 1/6=120,11=1,18=20,19=15,26=3,38=1/1,3;
 2/9=110,12=2,15=1,17=6,18=5,40=1/2;
 3/5=16,6=1,11=2,25=1,30=1,71=1,74=-55/1,2,3;
 4//1;
 5/5=2,38=5/2;
 6/7=2,8=2,9=2,10=2,28=1/1;
 7/30=1/1,2,3,16;
 1/6=120,11=1,18=20,19=15,26=3/3(2);
 2/9=110,15=1/2;
 99//99;
 2/9=110,15=1/2;
 3/5=16,6=1,11=2,25=1,30=1,71=1,74=-55/1,2,3;
 4/5=5,16=3,69=1/1;
 5/5=2,38=5/2;
 7/30=1/1,2,3,16;
 1/6=120,11=1,18=20,19=15,26=3/3(-5);
 2/9=110,15=1/2;
 6/7=2,8=2,9=2,10=2,19=2,28=1/1;
 99/9=1/99;
 Leave Link    1 at Fri Sep 25 11:33:22 2020, MaxMem=   268435456 cpu:               0.7 elap:               0.1
 (Enter /applis/site/cecic/gaussian16/B.01/nehalem/g16/l101.exe)
 -----
 Title
 -----
 Symbolic Z-matrix:
 Charge =  0 Multiplicity = 1
 C
 H                    1    B1
 H                    1    B2       2    A2
 O                    1    B3       2    A3       3    D3       0
       Variables:
  B1                    1.08442                  
  B2                    1.08442                  
  A2                  119.99994                  
  B3                    1.21945                  
  A3                  120.00003                  
  D3                  180.00012                  
 
 ITRead=  0  0  0  0
 MicOpt= -1 -1 -1 -1
 NAtoms=      4 NQM=        4 NQMF=       0 NMMI=      0 NMMIF=      0
                NMic=       0 NMicF=      0.
                    Isotopes and Nuclear Properties:
 (Nuclear quadrupole moments (NQMom) in fm**2, nuclear magnetic moments (NMagM)
  in nuclear magnetons)

  Atom         1           2           3           4
 IAtWgt=          12           1           1          16
 AtmWgt=  12.0000000   1.0078250   1.0078250  15.9949146
 NucSpn=           0           1           1           0
 AtZEff=  -0.0000000  -0.0000000  -0.0000000  -0.0000000
 NQMom=    0.0000000   0.0000000   0.0000000   0.0000000
 NMagM=    0.0000000   2.7928460   2.7928460   0.0000000
 AtZNuc=   6.0000000   1.0000000   1.0000000   8.0000000
 Leave Link  101 at Fri Sep 25 11:33:22 2020, MaxMem=   268435456 cpu:               2.0 elap:               0.3
 (Enter /applis/site/cecic/gaussian16/B.01/nehalem/g16/l103.exe)

 GradGradGradGradGradGradGradGradGradGradGradGradGradGradGradGradGradGrad
 Berny optimization.
 Initialization pass.
                           ----------------------------
                           !    Initial Parameters    !
                           ! (Angstroms and Degrees)  !
 --------------------------                            --------------------------
 ! Name  Definition              Value          Derivative Info.                !
 --------------------------------------------------------------------------------
 ! R1    R(1,2)                  1.0844         estimate D2E/DX2                !
 ! R2    R(1,3)                  1.0844         estimate D2E/DX2                !
 ! R3    R(1,4)                  1.2195         estimate D2E/DX2                !
 ! A1    A(2,1,3)              119.9999         estimate D2E/DX2                !
 ! A2    A(2,1,4)              120.0            estimate D2E/DX2                !
 ! A3    A(3,1,4)              120.0            estimate D2E/DX2                !
 ! D1    D(2,1,4,3)            179.9999         estimate D2E/DX2                !
 --------------------------------------------------------------------------------
 Trust Radius=3.00D-01 FncErr=1.00D-07 GrdErr=1.00D-06 EigMax=2.50D+02 EigMin=1.00D-04
 Number of steps in this run=    100 maximum allowed number of steps=    100.
 GradGradGradGradGradGradGradGradGradGradGradGradGradGradGradGradGradGrad

 Leave Link  103 at Fri Sep 25 11:33:22 2020, MaxMem=   268435456 cpu:               0.1 elap:               0.0
 (Enter /applis/site/cecic/gaussian16/B.01/nehalem/g16/l202.exe)
                          Input orientation:                          
 ---------------------------------------------------------------------
 Center     Atomic      Atomic             Coordinates (Angstroms)
 Number     Number       Type             X           Y           Z
 ---------------------------------------------------------------------
      1          6           0        0.000000    0.000000    0.000000
      2          1           0        0.000000    0.000000    1.084420
      3          1           0        0.939136    0.000000   -0.542209
      4          8           0       -1.056074    0.000002   -0.609726
 ---------------------------------------------------------------------
                    Distance matrix (angstroms):
                    1          2          3          4
     1  C    0.000000
     2  H    1.084420   0.000000
     3  H    1.084420   1.878270   0.000000
     4  O    1.219450   1.996352   1.996352   0.000000
 Symmetry turned off by external request.
 Stoichiometry    CH2O
 Framework group  CS[SG(CO),X(H2)]
 Deg. of freedom     4
 Full point group                 CS      NOp   2
 Rotational constants (GHZ):         284.2798140          38.6323319          34.0104647
 Leave Link  202 at Fri Sep 25 11:33:22 2020, MaxMem=   268435456 cpu:               0.0 elap:               0.0
 (Enter /applis/site/cecic/gaussian16/B.01/nehalem/g16/l301.exe)
 Standard basis: CC-pVTZ (5D, 7F)
 Ernie: Thresh=  0.10000D-02 Tol=  0.10000D-05 Strict=F.
 Ernie:  6 primitive shells out of 68 were deleted.
    88 basis functions,   138 primitive gaussians,   100 cartesian basis functions
     8 alpha electrons        8 beta electrons
       nuclear repulsion energy        31.2081483603 Hartrees.
 IExCor= 4336 DFT=T Ex+Corr=M062X ExCW=0 ScaHFX=  0.540000
 ScaDFX=  1.000000  1.000000  1.000000  1.000000 ScalE2=  1.000000  1.000000
 IRadAn=      5 IRanWt=     -1 IRanGd=            0 ICorTp=0 IEmpDi=  4
 NAtoms=    4 NActive=    4 NUniq=    4 SFac= 1.00D+00 NAtFMM=   60 NAOKFM=F Big=F
 Integral buffers will be    131072 words long.
 Raffenetti 2 integral format.
 Two-electron integral symmetry is turned off.
 Leave Link  301 at Fri Sep 25 11:33:22 2020, MaxMem=   268435456 cpu:               0.4 elap:               0.1
 (Enter /applis/site/cecic/gaussian16/B.01/nehalem/g16/l302.exe)
 NPDir=0 NMtPBC=     1 NCelOv=     1 NCel=       1 NClECP=     1 NCelD=      1
         NCelK=      1 NCelE2=     1 NClLst=     1 CellRange=     0.0.
 One-electron integrals computed using PRISM.
 NBasis=    88 RedAO= T EigKep=  2.19D-03  NBF=    88
 NBsUse=    88 1.00D-06 EigRej= -1.00D+00 NBFU=    88
 Precomputing XC quadrature grid using
 IXCGrd= 4 IRadAn=           5 IRanWt=          -1 IRanGd=           0 AccXCQ= 0.00D+00.
 Generated NRdTot=       0 NPtTot=           0 NUsed=           0 NTot=          32
 NSgBfM=   100   100   100   100   100 MxSgAt=     4 MxSgA2=     4.
 Leave Link  302 at Fri Sep 25 11:33:23 2020, MaxMem=   268435456 cpu:               1.1 elap:               0.2
 (Enter /applis/site/cecic/gaussian16/B.01/nehalem/g16/l303.exe)
 DipDrv:  MaxL=1.
 Leave Link  303 at Fri Sep 25 11:33:23 2020, MaxMem=   268435456 cpu:               0.3 elap:               0.1
 (Enter /applis/site/cecic/gaussian16/B.01/nehalem/g16/l401.exe)
 ExpMin= 1.03D-01 ExpMax= 1.53D+04 ExpMxC= 5.22D+02 IAcc=3 IRadAn=         5 AccDes= 0.00D+00
 Harris functional with IExCor= 1009 and IRadAn=       5 diagonalized for initial guess.
 HarFok:  IExCor= 1009 AccDes= 0.00D+00 IRadAn=         5 IDoV= 1 UseB2=F ITyADJ=14
 ICtDFT=  3500011 ScaDFX=  1.000000  1.000000  1.000000  1.000000
 FoFCou: FMM=F IPFlag=           0 FMFlag=      100000 FMFlg1=           0
         NFxFlg=           0 DoJE=T BraDBF=F KetDBF=T FulRan=T
         wScrn=  0.000000 ICntrl=       500 IOpCl=  0 I1Cent=   200000004 NGrid=           0
         NMat0=    1 NMatS0=      1 NMatT0=    0 NMatD0=    1 NMtDS0=    0 NMtDT0=    0
 Symmetry not used in FoFCou.
 Harris En= -114.444765460448    
 JPrj=0 DoOrth=F DoCkMO=F.
 Leave Link  401 at Fri Sep 25 11:33:23 2020, MaxMem=   268435456 cpu:               1.8 elap:               0.2
 (Enter /applis/site/cecic/gaussian16/B.01/nehalem/g16/l502.exe)
 Keep R1 ints in memory in canonical form, NReq=15087554.
 FoFCou: FMM=F IPFlag=           0 FMFlag=           0 FMFlg1=           0
         NFxFlg=           0 DoJE=F BraDBF=F KetDBF=F FulRan=T
         wScrn=  0.000000 ICntrl=       600 IOpCl=  0 I1Cent=           0 NGrid=           0
         NMat0=    1 NMatS0=   3916 NMatT0=    0 NMatD0=    1 NMtDS0=    0 NMtDT0=    0
 Symmetry not used in FoFCou.
 Two-electron integral symmetry not used.
 Closed shell SCF:
 Using DIIS extrapolation, IDIIS=  1040.
 NGot=   268435456 LenX=   260744388 LenY=   260733947
 Requested convergence on RMS density matrix=1.00D-08 within 128 cycles.
 Requested convergence on MAX density matrix=1.00D-06.
 Requested convergence on             energy=1.00D-06.
 No special actions if energy rises.
 Integral accuracy reduced to 1.0D-05 until final iterations.

 Cycle   1  Pass 0  IDiag  1:
 E= -114.443231989400    
 DIIS: error= 4.29D-02 at cycle   1 NSaved=   1.
 NSaved= 1 IEnMin= 1 EnMin= -114.443231989400     IErMin= 1 ErrMin= 4.29D-02
 ErrMax= 4.29D-02  0.00D+00 EMaxC= 1.00D-01 BMatC= 8.06D-02 BMatP= 8.06D-02
 IDIUse=3 WtCom= 5.71D-01 WtEn= 4.29D-01
 Coeff-Com:  0.100D+01
 Coeff-En:   0.100D+01
 Coeff:      0.100D+01
 Gap=     0.305 Goal=   None    Shift=    0.000
 GapD=    0.305 DampG=1.000 DampE=0.500 DampFc=0.5000 IDamp=-1.
 Damping current iteration by 5.00D-01
 RMSDP=4.32D-03 MaxDP=5.43D-02              OVMax= 1.83D-01

 Cycle   2  Pass 0  IDiag  1:
 E= -114.463082625002     Delta-E=       -0.019850635602 Rises=F Damp=T
 DIIS: error= 1.08D-02 at cycle   2 NSaved=   2.
 NSaved= 2 IEnMin= 2 EnMin= -114.463082625002     IErMin= 2 ErrMin= 1.08D-02
 ErrMax= 1.08D-02  0.00D+00 EMaxC= 1.00D-01 BMatC= 1.06D-02 BMatP= 8.06D-02
 IDIUse=3 WtCom= 8.92D-01 WtEn= 1.08D-01
 Coeff-Com:  0.104D+00 0.896D+00
 Coeff-En:   0.201D+00 0.799D+00
 Coeff:      0.114D+00 0.886D+00
 Gap=     0.353 Goal=   None    Shift=    0.000
 RMSDP=8.32D-04 MaxDP=1.02D-02 DE=-1.99D-02 OVMax= 1.22D-01

 Cycle   3  Pass 0  IDiag  1:
 E= -114.492603131663     Delta-E=       -0.029520506661 Rises=F Damp=F
 DIIS: error= 8.46D-03 at cycle   3 NSaved=   3.
 NSaved= 3 IEnMin= 3 EnMin= -114.492603131663     IErMin= 3 ErrMin= 8.46D-03
 ErrMax= 8.46D-03  0.00D+00 EMaxC= 1.00D-01 BMatC= 3.12D-03 BMatP= 1.06D-02
 IDIUse=3 WtCom= 9.15D-01 WtEn= 8.46D-02
 Coeff-Com: -0.577D-01 0.327D+00 0.731D+00
 Coeff-En:   0.000D+00 0.000D+00 0.100D+01
 Coeff:     -0.528D-01 0.299D+00 0.754D+00
 Gap=     0.340 Goal=   None    Shift=    0.000
 RMSDP=3.66D-04 MaxDP=7.84D-03 DE=-2.95D-02 OVMax= 3.11D-02

 Cycle   4  Pass 0  IDiag  1:
 E= -114.494786731374     Delta-E=       -0.002183599711 Rises=F Damp=F
 DIIS: error= 3.61D-03 at cycle   4 NSaved=   4.
 NSaved= 4 IEnMin= 4 EnMin= -114.494786731374     IErMin= 4 ErrMin= 3.61D-03
 ErrMax= 3.61D-03  0.00D+00 EMaxC= 1.00D-01 BMatC= 5.13D-04 BMatP= 3.12D-03
 IDIUse=3 WtCom= 9.64D-01 WtEn= 3.61D-02
 Coeff-Com: -0.103D-01 0.213D-01 0.315D+00 0.674D+00
 Coeff-En:   0.000D+00 0.000D+00 0.101D+00 0.899D+00
 Coeff:     -0.996D-02 0.205D-01 0.307D+00 0.683D+00
 Gap=     0.344 Goal=   None    Shift=    0.000
 RMSDP=1.12D-04 MaxDP=2.44D-03 DE=-2.18D-03 OVMax= 6.28D-03

 Cycle   5  Pass 0  IDiag  1:
 E= -114.495188955023     Delta-E=       -0.000402223649 Rises=F Damp=F
 DIIS: error= 1.67D-04 at cycle   5 NSaved=   5.
 NSaved= 5 IEnMin= 5 EnMin= -114.495188955023     IErMin= 5 ErrMin= 1.67D-04
 ErrMax= 1.67D-04  0.00D+00 EMaxC= 1.00D-01 BMatC= 1.75D-06 BMatP= 5.13D-04
 IDIUse=3 WtCom= 9.98D-01 WtEn= 1.67D-03
 Coeff-Com:  0.186D-02-0.662D-02 0.727D-02 0.278D-01 0.970D+00
 Coeff-En:   0.000D+00 0.000D+00 0.000D+00 0.000D+00 0.100D+01
 Coeff:      0.186D-02-0.661D-02 0.725D-02 0.278D-01 0.970D+00
 Gap=     0.345 Goal=   None    Shift=    0.000
 RMSDP=2.28D-05 MaxDP=3.27D-04 DE=-4.02D-04 OVMax= 6.99D-04

 Cycle   6  Pass 0  IDiag  1:
 E= -114.495191318584     Delta-E=       -0.000002363561 Rises=F Damp=F
 DIIS: error= 6.79D-05 at cycle   6 NSaved=   6.
 NSaved= 6 IEnMin= 6 EnMin= -114.495191318584     IErMin= 6 ErrMin= 6.79D-05
 ErrMax= 6.79D-05  0.00D+00 EMaxC= 1.00D-01 BMatC= 1.84D-07 BMatP= 1.75D-06
 IDIUse=1 WtCom= 1.00D+00 WtEn= 0.00D+00
 Coeff-Com:  0.871D-03-0.177D-02-0.182D-01-0.500D-01-0.577D-01 0.113D+01
 Coeff:      0.871D-03-0.177D-02-0.182D-01-0.500D-01-0.577D-01 0.113D+01
 Gap=     0.345 Goal=   None    Shift=    0.000
 RMSDP=8.39D-06 MaxDP=1.23D-04 DE=-2.36D-06 OVMax= 3.04D-04

 Initial convergence to 1.0D-05 achieved.  Increase integral accuracy.
 Cycle   7  Pass 1  IDiag  1:
 E= -114.495202686571     Delta-E=       -0.000011367987 Rises=F Damp=F
 DIIS: error= 3.03D-05 at cycle   1 NSaved=   1.
 NSaved= 1 IEnMin= 1 EnMin= -114.495202686571     IErMin= 1 ErrMin= 3.03D-05
 ErrMax= 3.03D-05  0.00D+00 EMaxC= 1.00D-01 BMatC= 1.10D-07 BMatP= 1.10D-07
 IDIUse=1 WtCom= 1.00D+00 WtEn= 0.00D+00
 Coeff-Com:  0.100D+01
 Coeff:      0.100D+01
 Gap=     0.345 Goal=   None    Shift=    0.000
 RMSDP=8.39D-06 MaxDP=1.23D-04 DE=-1.14D-05 OVMax= 7.73D-05

 Cycle   8  Pass 1  IDiag  1:
 E= -114.495202748801     Delta-E=       -0.000000062230 Rises=F Damp=F
 DIIS: error= 1.16D-05 at cycle   2 NSaved=   2.
 NSaved= 2 IEnMin= 2 EnMin= -114.495202748801     IErMin= 2 ErrMin= 1.16D-05
 ErrMax= 1.16D-05  0.00D+00 EMaxC= 1.00D-01 BMatC= 5.83D-09 BMatP= 1.10D-07
 IDIUse=1 WtCom= 1.00D+00 WtEn= 0.00D+00
 Coeff-Com:  0.299D-01 0.970D+00
 Coeff:      0.299D-01 0.970D+00
 Gap=     0.345 Goal=   None    Shift=    0.000
 RMSDP=9.04D-07 MaxDP=1.77D-05 DE=-6.22D-08 OVMax= 7.40D-05

 Cycle   9  Pass 1  IDiag  1:
 E= -114.495202745936     Delta-E=        0.000000002866 Rises=F Damp=F
 DIIS: error= 1.38D-05 at cycle   3 NSaved=   3.
 NSaved= 3 IEnMin= 2 EnMin= -114.495202748801     IErMin= 2 ErrMin= 1.16D-05
 ErrMax= 1.38D-05  0.00D+00 EMaxC= 1.00D-01 BMatC= 1.17D-08 BMatP= 5.83D-09
 IDIUse=1 WtCom= 1.00D+00 WtEn= 0.00D+00
 Coeff-Com: -0.395D-01 0.609D+00 0.430D+00
 Coeff:     -0.395D-01 0.609D+00 0.430D+00
 Gap=     0.345 Goal=   None    Shift=    0.000
 RMSDP=5.65D-07 MaxDP=9.52D-06 DE= 2.87D-09 OVMax= 3.53D-05

 Cycle  10  Pass 1  IDiag  1:
 E= -114.495202753990     Delta-E=       -0.000000008054 Rises=F Damp=F
 DIIS: error= 1.29D-06 at cycle   4 NSaved=   4.
 NSaved= 4 IEnMin= 4 EnMin= -114.495202753990     IErMin= 4 ErrMin= 1.29D-06
 ErrMax= 1.29D-06  0.00D+00 EMaxC= 1.00D-01 BMatC= 7.71D-11 BMatP= 5.83D-09
 IDIUse=1 WtCom= 1.00D+00 WtEn= 0.00D+00
 Coeff-Com: -0.139D-01 0.140D+00 0.110D+00 0.763D+00
 Coeff:     -0.139D-01 0.140D+00 0.110D+00 0.763D+00
 Gap=     0.345 Goal=   None    Shift=    0.000
 RMSDP=7.78D-08 MaxDP=1.22D-06 DE=-8.05D-09 OVMax= 4.04D-06

 Cycle  11  Pass 1  IDiag  1:
 E= -114.495202754064     Delta-E=       -0.000000000074 Rises=F Damp=F
 DIIS: error= 4.87D-07 at cycle   5 NSaved=   5.
 NSaved= 5 IEnMin= 5 EnMin= -114.495202754064     IErMin= 5 ErrMin= 4.87D-07
 ErrMax= 4.87D-07  0.00D+00 EMaxC= 1.00D-01 BMatC= 1.08D-11 BMatP= 7.71D-11
 IDIUse=1 WtCom= 1.00D+00 WtEn= 0.00D+00
 Coeff-Com:  0.183D-02-0.445D-01-0.436D-01 0.153D+00 0.933D+00
 Coeff:      0.183D-02-0.445D-01-0.436D-01 0.153D+00 0.933D+00
 Gap=     0.345 Goal=   None    Shift=    0.000
 RMSDP=5.40D-08 MaxDP=7.81D-07 DE=-7.40D-11 OVMax= 1.72D-06

 Cycle  12  Pass 1  IDiag  1:
 E= -114.495202754077     Delta-E=       -0.000000000012 Rises=F Damp=F
 DIIS: error= 1.31D-07 at cycle   6 NSaved=   6.
 NSaved= 6 IEnMin= 6 EnMin= -114.495202754077     IErMin= 6 ErrMin= 1.31D-07
 ErrMax= 1.31D-07  0.00D+00 EMaxC= 1.00D-01 BMatC= 8.03D-13 BMatP= 1.08D-11
 IDIUse=1 WtCom= 1.00D+00 WtEn= 0.00D+00
 Coeff-Com:  0.900D-03-0.980D-02-0.149D-01-0.237D-01 0.430D-01 0.100D+01
 Coeff:      0.900D-03-0.980D-02-0.149D-01-0.237D-01 0.430D-01 0.100D+01
 Gap=     0.345 Goal=   None    Shift=    0.000
 RMSDP=1.26D-08 MaxDP=1.74D-07 DE=-1.23D-11 OVMax= 3.88D-07

 Cycle  13  Pass 1  IDiag  1:
 E= -114.495202754077     Delta-E=       -0.000000000001 Rises=F Damp=F
 DIIS: error= 1.18D-08 at cycle   7 NSaved=   7.
 NSaved= 7 IEnMin= 7 EnMin= -114.495202754077     IErMin= 7 ErrMin= 1.18D-08
 ErrMax= 1.18D-08  0.00D+00 EMaxC= 1.00D-01 BMatC= 1.09D-14 BMatP= 8.03D-13
 IDIUse=1 WtCom= 1.00D+00 WtEn= 0.00D+00
 Coeff-Com: -0.413D-04 0.167D-02 0.825D-03-0.812D-02-0.376D-01 0.323D-01
 Coeff-Com:  0.101D+01
 Coeff:     -0.413D-04 0.167D-02 0.825D-03-0.812D-02-0.376D-01 0.323D-01
 Coeff:      0.101D+01
 Gap=     0.345 Goal=   None    Shift=    0.000
 RMSDP=2.01D-09 MaxDP=2.62D-08 DE=-7.96D-13 OVMax= 7.25D-08

 SCF Done:  E(RM062X) =  -114.495202754     A.U. after   13 cycles
            NFock= 13  Conv=0.20D-08     -V/T= 2.0053
 KE= 1.138881291775D+02 PE=-3.312191153621D+02 EE= 7.162763507029D+01
 Leave Link  502 at Fri Sep 25 11:33:25 2020, MaxMem=   268435456 cpu:              18.6 elap:               2.5
 (Enter /applis/site/cecic/gaussian16/B.01/nehalem/g16/l601.exe)
 Copying SCF densities to generalized density rwf, IOpCl= 0 IROHF=0.

 **********************************************************************

            Population analysis using the SCF Density.

 **********************************************************************

 Alpha  occ. eigenvalues --  -19.64298 -10.63770  -1.17789  -0.73333  -0.58506
 Alpha  occ. eigenvalues --   -0.53104  -0.46790  -0.34887
 Alpha virt. eigenvalues --   -0.00406   0.08337   0.13906   0.18376   0.32800
 Alpha virt. eigenvalues --    0.32875   0.37444   0.47565   0.49682   0.54241
 Alpha virt. eigenvalues --    0.57089   0.58916   0.71089   0.75606   0.80394
 Alpha virt. eigenvalues --    0.87540   0.91161   1.03901   1.04374   1.05702
 Alpha virt. eigenvalues --    1.14528   1.17206   1.30571   1.46087   1.55442
 Alpha virt. eigenvalues --    1.73019   1.76282   1.91138   2.05547   2.07578
 Alpha virt. eigenvalues --    2.10086   2.22879   2.37046   2.54939   2.57097
 Alpha virt. eigenvalues --    2.67043   2.77960   2.83805   2.87641   2.92641
 Alpha virt. eigenvalues --    2.94087   3.13389   3.15226   3.17143   3.28787
 Alpha virt. eigenvalues --    3.31311   3.34077   3.39623   3.59916   3.66160
 Alpha virt. eigenvalues --    3.82012   3.82262   3.84700   3.92887   4.03171
 Alpha virt. eigenvalues --    4.09398   4.40571   4.42146   4.61751   4.71210
 Alpha virt. eigenvalues --    4.71595   4.75282   5.01981   5.07194   5.19058
 Alpha virt. eigenvalues --    5.25682   5.27583   5.58678   5.65776   5.83230
 Alpha virt. eigenvalues --    6.08373   6.11131   6.35612   6.38352   6.78049
 Alpha virt. eigenvalues --    6.87757   6.98392   7.01226  10.52547  12.77662
          Condensed to atoms (all electrons):
               1          2          3          4
     1  C    4.439978   0.364635   0.364635   0.664524
     2  H    0.364635   0.773719  -0.114726  -0.082400
     3  H    0.364635  -0.114726   0.773720  -0.082398
     4  O    0.664524  -0.082400  -0.082398   7.784043
 Mulliken charges:
               1
     1  C    0.166229
     2  H    0.058771
     3  H    0.058769
     4  O   -0.283769
 Sum of Mulliken charges =  -0.00000
 Mulliken charges with hydrogens summed into heavy atoms:
               1
     1  C    0.283769
     4  O   -0.283769
 Electronic spatial extent (au):  <R**2>=             78.9940
 Charge=             -0.0000 electrons
 Dipole moment (field-independent basis, Debye):
    X=              2.1691    Y=             -0.0000    Z=              1.2524  Tot=              2.5047
 Quadrupole moment (field-independent basis, Debye-Ang):
   XX=            -13.9153   YY=            -11.6689   ZZ=            -12.2275
   XY=              0.0000   XZ=             -1.4616   YZ=              0.0000
 Traceless Quadrupole moment (field-independent basis, Debye-Ang):
   XX=             -1.3114   YY=              0.9350   ZZ=              0.3764
   XY=              0.0000   XZ=             -1.4616   YZ=              0.0000
 Octapole moment (field-independent basis, Debye-Ang**2):
  XXX=             18.2086  YYY=             -0.0000  ZZZ=             10.2665  XYY=              4.9050
  XXY=             -0.0000  XXZ=              3.7506  XZZ=              6.0695  YZZ=             -0.0000
  YYZ=              2.8319  XYZ=             -0.0000
 Hexadecapole moment (field-independent basis, Debye-Ang**3):
 XXXX=            -54.2314 YYYY=            -10.1444 ZZZZ=            -29.7386 XXXY=              0.0000
 XXXZ=            -10.6966 YYYX=              0.0000 YYYZ=              0.0000 ZZZX=            -10.5148
 ZZZY=              0.0000 XXYY=            -10.0897 XXZZ=            -14.0650 YYZZ=             -6.6781
 XXYZ=              0.0000 YYXZ=             -2.9545 ZZXY=              0.0000
 N-N= 3.120814836031D+01 E-N=-3.312191155497D+02  KE= 1.138881291775D+02
 No NMR shielding tensors so no spin-rotation constants.
 Leave Link  601 at Fri Sep 25 11:33:26 2020, MaxMem=   268435456 cpu:               0.8 elap:               0.1
 (Enter /applis/site/cecic/gaussian16/B.01/nehalem/g16/l701.exe)
 ... and contract with generalized density number  0.
 Compute integral first derivatives.
 Leave Link  701 at Fri Sep 25 11:33:26 2020, MaxMem=   268435456 cpu:               1.0 elap:               0.2
 (Enter /applis/site/cecic/gaussian16/B.01/nehalem/g16/l702.exe)
 L702 exits ... SP integral derivatives will be done elsewhere.
 Leave Link  702 at Fri Sep 25 11:33:26 2020, MaxMem=   268435456 cpu:               0.3 elap:               0.1
 (Enter /applis/site/cecic/gaussian16/B.01/nehalem/g16/l703.exe)
 Integral derivatives from FoFJK, PRISM(SPDF).
 Compute integral first derivatives, UseDBF=F ICtDFT=           0.
 Calling FoFJK, ICntrl=      2127 FMM=F ISym2X=0 I1Cent= 0 IOpClX= 0 NMat=1 NMatS=1 NMatT=0.
 FoFJK:  IHMeth= 1 ICntrl=    2127 DoSepK=F KAlg= 0 I1Cent=           0 FoldK=F
 IRaf=         0 NMat=       1 IRICut=       1 DoRegI=T DoRafI=F ISym2E= 0 IDoP0=0 IntGTp=1.
 FoFCou: FMM=F IPFlag=           0 FMFlag=      100000 FMFlg1=         800
         NFxFlg=           0 DoJE=F BraDBF=F KetDBF=F FulRan=T
         wScrn=  0.000000 ICntrl=      2127 IOpCl=  0 I1Cent=           0 NGrid=           0
         NMat0=    1 NMatS0=      1 NMatT0=    0 NMatD0=    1 NMtDS0=    0 NMtDT0=    0
 Symmetry not used in FoFCou.
 Leave Link  703 at Fri Sep 25 11:33:27 2020, MaxMem=   268435456 cpu:               5.5 elap:               0.7
 (Enter /applis/site/cecic/gaussian16/B.01/nehalem/g16/l716.exe)
 Dipole        = 8.53401730D-01-1.44439757D-06 4.92718153D-01
 -------------------------------------------------------------------
 Center     Atomic                   Forces (Hartrees/Bohr)
 Number     Number              X              Y              Z
 -------------------------------------------------------------------
      1        6          -0.043856874    0.000000297   -0.025335734
      2        1           0.004205600   -0.000000082    0.009892743
      3        1           0.010660356   -0.000000082   -0.001293396
      4        8           0.028990917   -0.000000134    0.016736387
 -------------------------------------------------------------------
 Cartesian Forces:  Max     0.043856874 RMS     0.018066484
 Leave Link  716 at Fri Sep 25 11:33:27 2020, MaxMem=   268435456 cpu:               0.3 elap:               0.1
 (Enter /applis/site/cecic/gaussian16/B.01/nehalem/g16/l103.exe)

 GradGradGradGradGradGradGradGradGradGradGradGradGradGradGradGradGradGrad
 Berny optimization.
 FormGI is forming the generalized inverse of G from B-inverse, IUseBI=4.
 Internal  Forces:  Max     0.033475065 RMS     0.013967348
 Search for a local minimum.
 Step number   1 out of a maximum of  100
 All quantities printed in internal units (Hartrees-Bohrs-Radians)
 RMS Force = .13967D-01 SwitMx=.10000D-02 MixMth= 1
 Mixed Optimization -- RFO/linear search
 Second derivative matrix not updated -- first step.
 The second derivative matrix:
                          R1        R2        R3        A1        A2
           R1           0.35466
           R2           0.00000   0.35466
           R3           0.00000   0.00000   0.95627
           A1           0.00000   0.00000   0.00000   0.16000
           A2           0.00000   0.00000   0.00000   0.00000   0.16000
           A3           0.00000   0.00000   0.00000   0.00000   0.00000
           D1           0.00000   0.00000   0.00000   0.00000   0.00000
                          A3        D1
           A3           0.16000
           D1           0.00000   0.04080
 ITU=  0
     Eigenvalues ---    0.04080   0.16000   0.16000   0.35466   0.35466
     Eigenvalues ---    0.95627
 RFO step:  Lambda=-2.02328244D-03 EMin= 4.08011075D-02
 Linear search not attempted -- first point.
 Iteration  1 RMS(Cart)=  0.01441752 RMS(Int)=  0.00027871
 Iteration  2 RMS(Cart)=  0.00029889 RMS(Int)=  0.00000005
 Iteration  3 RMS(Cart)=  0.00000004 RMS(Int)=  0.00000000
 ITry= 1 IFail=0 DXMaxC= 2.73D-02 DCOld= 1.00D+10 DXMaxT= 3.00D-01 DXLimC= 3.00D+00 Rises=F
 Variable       Old X    -DE/DX   Delta X   Delta X   Delta X     New X
                                 (Linear)    (Quad)   (Total)
    R1        2.04926   0.00989   0.00000   0.02774   0.02774   2.07699
    R2        2.04926   0.00988   0.00000   0.02770   0.02770   2.07695
    R3        2.30443  -0.03348   0.00000  -0.03493  -0.03493   2.26949
    A1        2.09439  -0.00575   0.00000  -0.03548  -0.03548   2.05891
    A2        2.09440   0.00287   0.00000   0.01774   0.01774   2.11213
    A3        2.09440   0.00288   0.00000   0.01774   0.01774   2.11214
    D1        3.14159   0.00000   0.00000   0.00000   0.00000  -3.14159
         Item               Value     Threshold  Converged?
 Maximum Force            0.033475     0.000450     NO 
 RMS     Force            0.013967     0.000300     NO 
 Maximum Displacement     0.027304     0.001800     NO 
 RMS     Displacement     0.014432     0.001200     NO 
 Predicted change in Energy=-1.016340D-03
 Lowest energy point so far.  Saving SCF results.
 GradGradGradGradGradGradGradGradGradGradGradGradGradGradGradGradGradGrad

 Leave Link  103 at Fri Sep 25 11:33:27 2020, MaxMem=   268435456 cpu:               0.4 elap:               0.1
 (Enter /applis/site/cecic/gaussian16/B.01/nehalem/g16/l202.exe)
                          Input orientation:                          
 ---------------------------------------------------------------------
 Center     Atomic      Atomic             Coordinates (Angstroms)
 Number     Number       Type             X           Y           Z
 ---------------------------------------------------------------------
      1          6           0       -0.014449    0.000001   -0.008349
      2          1           0        0.005047   -0.000000    1.090576
      3          1           0        0.946980   -0.000000   -0.540913
      4          8           0       -1.054516    0.000002   -0.608828
 ---------------------------------------------------------------------
                    Distance matrix (angstroms):
                    1          2          3          4
     1  C    0.000000
     2  H    1.099097   0.000000
     3  H    1.099077   1.883877   0.000000
     4  O    1.200965   2.002660   2.002648   0.000000
 Symmetry turned off by external request.
 Stoichiometry    CH2O
 Framework group  C1[X(CH2O)]
 Deg. of freedom     6
 Full point group                 C1      NOp   1
 Rotational constants (GHZ):         282.5900567          39.3641017          34.5512038
 Leave Link  202 at Fri Sep 25 11:33:27 2020, MaxMem=   268435456 cpu:               0.0 elap:               0.0
 (Enter /applis/site/cecic/gaussian16/B.01/nehalem/g16/l301.exe)
 Standard basis: CC-pVTZ (5D, 7F)
 Ernie: Thresh=  0.10000D-02 Tol=  0.10000D-05 Strict=F.
 Ernie:  6 primitive shells out of 68 were deleted.
    88 basis functions,   138 primitive gaussians,   100 cartesian basis functions
     8 alpha electrons        8 beta electrons
       nuclear repulsion energy        31.4364267942 Hartrees.
 IExCor= 4336 DFT=T Ex+Corr=M062X ExCW=0 ScaHFX=  0.540000
 ScaDFX=  1.000000  1.000000  1.000000  1.000000 ScalE2=  1.000000  1.000000
 IRadAn=      5 IRanWt=     -1 IRanGd=            0 ICorTp=0 IEmpDi=  4
 NAtoms=    4 NActive=    4 NUniq=    4 SFac= 1.00D+00 NAtFMM=   60 NAOKFM=F Big=F
 Integral buffers will be    131072 words long.
 Raffenetti 2 integral format.
 Two-electron integral symmetry is turned off.
 Leave Link  301 at Fri Sep 25 11:33:27 2020, MaxMem=   268435456 cpu:               0.4 elap:               0.1
 (Enter /applis/site/cecic/gaussian16/B.01/nehalem/g16/l302.exe)
 NPDir=0 NMtPBC=     1 NCelOv=     1 NCel=       1 NClECP=     1 NCelD=      1
         NCelK=      1 NCelE2=     1 NClLst=     1 CellRange=     0.0.
 One-electron integrals computed using PRISM.
 NBasis=    88 RedAO= T EigKep=  2.31D-03  NBF=    88
 NBsUse=    88 1.00D-06 EigRej= -1.00D+00 NBFU=    88
 Precomputing XC quadrature grid using
 IXCGrd= 4 IRadAn=           5 IRanWt=          -1 IRanGd=           0 AccXCQ= 0.00D+00.
 Generated NRdTot=       0 NPtTot=           0 NUsed=           0 NTot=          32
 NSgBfM=   100   100   100   100   100 MxSgAt=     4 MxSgA2=     4.
 Leave Link  302 at Fri Sep 25 11:33:27 2020, MaxMem=   268435456 cpu:               1.1 elap:               0.2
 (Enter /applis/site/cecic/gaussian16/B.01/nehalem/g16/l303.exe)
 DipDrv:  MaxL=1.
 Leave Link  303 at Fri Sep 25 11:33:27 2020, MaxMem=   268435456 cpu:               0.3 elap:               0.1
 (Enter /applis/site/cecic/gaussian16/B.01/nehalem/g16/l401.exe)
 Initial guess from the checkpoint file:  "input.chk"
 B after Tr=    -0.007244    0.000001   -0.004189
         Rot=    1.000000    0.000000   -0.000000   -0.000000 Ang=   0.00 deg.
 Guess basis will be translated and rotated to current coordinates.
 JPrj=2 DoOrth=T DoCkMO=T.
 Generating alternative initial guess.
 ExpMin= 1.03D-01 ExpMax= 1.53D+04 ExpMxC= 5.22D+02 IAcc=3 IRadAn=         5 AccDes= 0.00D+00
 Harris functional with IExCor= 1009 and IRadAn=       5 diagonalized for initial guess.
 HarFok:  IExCor= 1009 AccDes= 0.00D+00 IRadAn=         5 IDoV= 1 UseB2=F ITyADJ=14
 ICtDFT=  3500011 ScaDFX=  1.000000  1.000000  1.000000  1.000000
 FoFCou: FMM=F IPFlag=           0 FMFlag=      100000 FMFlg1=           0
         NFxFlg=           0 DoJE=T BraDBF=F KetDBF=T FulRan=T
         wScrn=  0.000000 ICntrl=       500 IOpCl=  0 I1Cent=   200000004 NGrid=           0
         NMat0=    1 NMatS0=      1 NMatT0=    0 NMatD0=    1 NMtDS0=    0 NMtDT0=    0
 Symmetry not used in FoFCou.
 Harris En= -114.445844107538    
 Leave Link  401 at Fri Sep 25 11:33:27 2020, MaxMem=   268435456 cpu:               2.4 elap:               0.3
 (Enter /applis/site/cecic/gaussian16/B.01/nehalem/g16/l502.exe)
 Keep R1 ints in memory in canonical form, NReq=15087554.
 FoFCou: FMM=F IPFlag=           0 FMFlag=           0 FMFlg1=           0
         NFxFlg=           0 DoJE=F BraDBF=F KetDBF=F FulRan=T
         wScrn=  0.000000 ICntrl=       600 IOpCl=  0 I1Cent=           0 NGrid=           0
         NMat0=    1 NMatS0=   3916 NMatT0=    0 NMatD0=    1 NMtDS0=    0 NMtDT0=    0
 Symmetry not used in FoFCou.
 Two-electron integral symmetry not used.
 Closed shell SCF:
 Using DIIS extrapolation, IDIIS=  1040.
 NGot=   268435456 LenX=   260744388 LenY=   260733947
 Requested convergence on RMS density matrix=1.00D-08 within 128 cycles.
 Requested convergence on MAX density matrix=1.00D-06.
 Requested convergence on             energy=1.00D-06.
 No special actions if energy rises.
 Integral accuracy reduced to 1.0D-05 until final iterations.

 Cycle   1  Pass 0  IDiag  1:
 E= -114.496041292108    
 DIIS: error= 2.31D-03 at cycle   1 NSaved=   1.
 NSaved= 1 IEnMin= 1 EnMin= -114.496041292108     IErMin= 1 ErrMin= 2.31D-03
 ErrMax= 2.31D-03  0.00D+00 EMaxC= 1.00D-01 BMatC= 4.82D-04 BMatP= 4.82D-04
 IDIUse=3 WtCom= 9.77D-01 WtEn= 2.31D-02
 Coeff-Com:  0.100D+01
 Coeff-En:   0.100D+01
 Coeff:      0.100D+01
 Gap=     1.455 Goal=   None    Shift=    0.000
 GapD=    1.455 DampG=2.000 DampE=1.000 DampFc=2.0000 IDamp=-1.
 RMSDP=2.03D-04 MaxDP=2.50D-03              OVMax= 8.53D-03

 Cycle   2  Pass 0  IDiag  1:
 E= -114.496334262902     Delta-E=       -0.000292970794 Rises=F Damp=F
 DIIS: error= 1.86D-03 at cycle   2 NSaved=   2.
 NSaved= 2 IEnMin= 2 EnMin= -114.496334262902     IErMin= 2 ErrMin= 1.86D-03
 ErrMax= 1.86D-03  0.00D+00 EMaxC= 1.00D-01 BMatC= 2.33D-04 BMatP= 4.82D-04
 IDIUse=3 WtCom= 9.81D-01 WtEn= 1.86D-02
 Coeff-Com:  0.375D+00 0.625D+00
 Coeff-En:   0.000D+00 0.100D+01
 Coeff:      0.368D+00 0.632D+00
 Gap=     0.347 Goal=   None    Shift=    0.000
 RMSDP=1.33D-04 MaxDP=2.03D-03 DE=-2.93D-04 OVMax= 7.58D-03

 Cycle   3  Pass 0  IDiag  1:
 E= -114.496434175997     Delta-E=       -0.000099913095 Rises=F Damp=F
 DIIS: error= 1.09D-03 at cycle   3 NSaved=   3.
 NSaved= 3 IEnMin= 3 EnMin= -114.496434175997     IErMin= 3 ErrMin= 1.09D-03
 ErrMax= 1.09D-03  0.00D+00 EMaxC= 1.00D-01 BMatC= 8.21D-05 BMatP= 2.33D-04
 IDIUse=3 WtCom= 9.89D-01 WtEn= 1.09D-02
 Coeff-Com: -0.668D-02 0.367D+00 0.640D+00
 Coeff-En:   0.000D+00 0.280D+00 0.720D+00
 Coeff:     -0.660D-02 0.366D+00 0.640D+00
 Gap=     0.348 Goal=   None    Shift=    0.000
 RMSDP=4.77D-05 MaxDP=9.57D-04 DE=-9.99D-05 OVMax= 3.35D-03

 Cycle   4  Pass 0  IDiag  1:
 E= -114.496491093511     Delta-E=       -0.000056917514 Rises=F Damp=F
 DIIS: error= 1.89D-04 at cycle   4 NSaved=   4.
 NSaved= 4 IEnMin= 4 EnMin= -114.496491093511     IErMin= 4 ErrMin= 1.89D-04
 ErrMax= 1.89D-04  0.00D+00 EMaxC= 1.00D-01 BMatC= 1.16D-06 BMatP= 8.21D-05
 IDIUse=3 WtCom= 9.98D-01 WtEn= 1.89D-03
 Coeff-Com: -0.201D-01 0.451D-01 0.158D+00 0.817D+00
 Coeff-En:   0.000D+00 0.000D+00 0.000D+00 0.100D+01
 Coeff:     -0.201D-01 0.450D-01 0.158D+00 0.817D+00
 Gap=     0.348 Goal=   None    Shift=    0.000
 RMSDP=7.64D-06 MaxDP=1.32D-04 DE=-5.69D-05 OVMax= 4.15D-04

 Initial convergence to 1.0D-05 achieved.  Increase integral accuracy.
 Cycle   5  Pass 1  IDiag  1:
 E= -114.496491436772     Delta-E=       -0.000000343262 Rises=F Damp=F
 DIIS: error= 4.94D-05 at cycle   1 NSaved=   1.
 NSaved= 1 IEnMin= 1 EnMin= -114.496491436772     IErMin= 1 ErrMin= 4.94D-05
 ErrMax= 4.94D-05  0.00D+00 EMaxC= 1.00D-01 BMatC= 1.66D-07 BMatP= 1.66D-07
 IDIUse=1 WtCom= 1.00D+00 WtEn= 0.00D+00
 Coeff-Com:  0.100D+01
 Coeff:      0.100D+01
 Gap=     0.348 Goal=   None    Shift=    0.000
 RMSDP=7.64D-06 MaxDP=1.32D-04 DE=-3.43D-07 OVMax= 1.99D-04

 Cycle   6  Pass 1  IDiag  1:
 E= -114.496491544162     Delta-E=       -0.000000107390 Rises=F Damp=F
 DIIS: error= 3.28D-05 at cycle   2 NSaved=   2.
 NSaved= 2 IEnMin= 2 EnMin= -114.496491544162     IErMin= 2 ErrMin= 3.28D-05
 ErrMax= 3.28D-05  0.00D+00 EMaxC= 1.00D-01 BMatC= 3.65D-08 BMatP= 1.66D-07
 IDIUse=1 WtCom= 1.00D+00 WtEn= 0.00D+00
 Coeff-Com:  0.265D+00 0.735D+00
 Coeff:      0.265D+00 0.735D+00
 Gap=     0.348 Goal=   None    Shift=    0.000
 RMSDP=1.48D-06 MaxDP=3.22D-05 DE=-1.07D-07 OVMax= 7.04D-05

 Cycle   7  Pass 1  IDiag  1:
 E= -114.496491572126     Delta-E=       -0.000000027964 Rises=F Damp=F
 DIIS: error= 1.19D-05 at cycle   3 NSaved=   3.
 NSaved= 3 IEnMin= 3 EnMin= -114.496491572126     IErMin= 3 ErrMin= 1.19D-05
 ErrMax= 1.19D-05  0.00D+00 EMaxC= 1.00D-01 BMatC= 5.01D-09 BMatP= 3.65D-08
 IDIUse=1 WtCom= 1.00D+00 WtEn= 0.00D+00
 Coeff-Com: -0.284D-02 0.243D+00 0.759D+00
 Coeff:     -0.284D-02 0.243D+00 0.759D+00
 Gap=     0.348 Goal=   None    Shift=    0.000
 RMSDP=5.35D-07 MaxDP=1.02D-05 DE=-2.80D-08 OVMax= 4.06D-05

 Cycle   8  Pass 1  IDiag  1:
 E= -114.496491575073     Delta-E=       -0.000000002947 Rises=F Damp=F
 DIIS: error= 5.70D-06 at cycle   4 NSaved=   4.
 NSaved= 4 IEnMin= 4 EnMin= -114.496491575073     IErMin= 4 ErrMin= 5.70D-06
 ErrMax= 5.70D-06  0.00D+00 EMaxC= 1.00D-01 BMatC= 2.29D-09 BMatP= 5.01D-09
 IDIUse=1 WtCom= 1.00D+00 WtEn= 0.00D+00
 Coeff-Com: -0.238D-01 0.945D-01 0.473D+00 0.456D+00
 Coeff:     -0.238D-01 0.945D-01 0.473D+00 0.456D+00
 Gap=     0.348 Goal=   None    Shift=    0.000
 RMSDP=2.95D-07 MaxDP=4.00D-06 DE=-2.95D-09 OVMax= 1.41D-05

 Cycle   9  Pass 1  IDiag  1:
 E= -114.496491576604     Delta-E=       -0.000000001531 Rises=F Damp=F
 DIIS: error= 3.76D-07 at cycle   5 NSaved=   5.
 NSaved= 5 IEnMin= 5 EnMin= -114.496491576604     IErMin= 5 ErrMin= 3.76D-07
 ErrMax= 3.76D-07  0.00D+00 EMaxC= 1.00D-01 BMatC= 5.32D-12 BMatP= 2.29D-09
 IDIUse=1 WtCom= 1.00D+00 WtEn= 0.00D+00
 Coeff-Com:  0.212D-02-0.256D-01-0.822D-01-0.680D-01 0.117D+01
 Coeff:      0.212D-02-0.256D-01-0.822D-01-0.680D-01 0.117D+01
 Gap=     0.348 Goal=   None    Shift=    0.000
 RMSDP=7.26D-08 MaxDP=1.45D-06 DE=-1.53D-09 OVMax= 3.14D-06

 Cycle  10  Pass 1  IDiag  1:
 E= -114.496491576619     Delta-E=       -0.000000000015 Rises=F Damp=F
 DIIS: error= 4.72D-08 at cycle   6 NSaved=   6.
 NSaved= 6 IEnMin= 6 EnMin= -114.496491576619     IErMin= 6 ErrMin= 4.72D-08
 ErrMax= 4.72D-08  0.00D+00 EMaxC= 1.00D-01 BMatC= 1.43D-13 BMatP= 5.32D-12
 IDIUse=1 WtCom= 1.00D+00 WtEn= 0.00D+00
 Coeff-Com:  0.581D-03-0.300D-02-0.102D-01-0.881D-02 0.637D-02 0.102D+01
 Coeff:      0.581D-03-0.300D-02-0.102D-01-0.881D-02 0.637D-02 0.102D+01
 Gap=     0.348 Goal=   None    Shift=    0.000
 RMSDP=8.87D-09 MaxDP=1.60D-07 DE=-1.46D-11 OVMax= 3.04D-07

 SCF Done:  E(RM062X) =  -114.496491577     A.U. after   10 cycles
            NFock= 10  Conv=0.89D-08     -V/T= 2.0051
 KE= 1.139166154378D+02 PE=-3.316738663150D+02 EE= 7.182433250639D+01
 Leave Link  502 at Fri Sep 25 11:33:29 2020, MaxMem=   268435456 cpu:              14.6 elap:               2.0
 (Enter /applis/site/cecic/gaussian16/B.01/nehalem/g16/l701.exe)
 ... and contract with generalized density number  0.
 Compute integral first derivatives.
 Leave Link  701 at Fri Sep 25 11:33:30 2020, MaxMem=   268435456 cpu:               1.1 elap:               0.2
 (Enter /applis/site/cecic/gaussian16/B.01/nehalem/g16/l702.exe)
 L702 exits ... SP integral derivatives will be done elsewhere.
 Leave Link  702 at Fri Sep 25 11:33:30 2020, MaxMem=   268435456 cpu:               0.3 elap:               0.1
 (Enter /applis/site/cecic/gaussian16/B.01/nehalem/g16/l703.exe)
 Integral derivatives from FoFJK, PRISM(SPDF).
 Compute integral first derivatives, UseDBF=F ICtDFT=           0.
 Calling FoFJK, ICntrl=      2127 FMM=F ISym2X=0 I1Cent= 0 IOpClX= 0 NMat=1 NMatS=1 NMatT=0.
 FoFJK:  IHMeth= 1 ICntrl=    2127 DoSepK=F KAlg= 0 I1Cent=           0 FoldK=F
 IRaf=         0 NMat=       1 IRICut=       1 DoRegI=T DoRafI=F ISym2E= 0 IDoP0=0 IntGTp=1.
 FoFCou: FMM=F IPFlag=           0 FMFlag=      100000 FMFlg1=         800
         NFxFlg=           0 DoJE=F BraDBF=F KetDBF=F FulRan=T
         wScrn=  0.000000 ICntrl=      2127 IOpCl=  0 I1Cent=           0 NGrid=           0
         NMat0=    1 NMatS0=      1 NMatT0=    0 NMatD0=    1 NMtDS0=    0 NMtDT0=    0
 Symmetry not used in FoFCou.
 Leave Link  703 at Fri Sep 25 11:33:30 2020, MaxMem=   268435456 cpu:               5.5 elap:               0.7
 (Enter /applis/site/cecic/gaussian16/B.01/nehalem/g16/l716.exe)
 Dipole        = 8.22223705D-01-1.08606349D-06 4.74699791D-01
 -------------------------------------------------------------------
 Center     Atomic                   Forces (Hartrees/Bohr)
 Number     Number              X              Y              Z
 -------------------------------------------------------------------
      1        6          -0.011675605   -0.000000109   -0.006730950
      2        1           0.002294858    0.000000038    0.002023972
      3        1           0.002916581    0.000000037    0.000976918
      4        8           0.006464166    0.000000034    0.003730060
 -------------------------------------------------------------------
 Cartesian Forces:  Max     0.011675605 RMS     0.004620136
 Leave Link  716 at Fri Sep 25 11:33:31 2020, MaxMem=   268435456 cpu:               0.5 elap:               0.1
 (Enter /applis/site/cecic/gaussian16/B.01/nehalem/g16/l103.exe)

 GradGradGradGradGradGradGradGradGradGradGradGradGradGradGradGradGradGrad
 Berny optimization.
 Using GEDIIS/GDIIS optimizer.
 FormGI is forming the generalized inverse of G from B-inverse, IUseBI=4.
 Internal  Forces:  Max     0.007463162 RMS     0.003359607
 Search for a local minimum.
 Step number   2 out of a maximum of  100
 All quantities printed in internal units (Hartrees-Bohrs-Radians)
 RMS Force = .33596D-02 SwitMx=.10000D-02 MixMth= 1
 Mixed Optimization -- RFO/linear search
 Update second derivatives using D2CorX and points    1    2
 DE= -1.29D-03 DEPred=-1.02D-03 R= 1.27D+00
 TightC=F SS=  1.41D+00  RLast= 6.82D-02 DXNew= 5.0454D-01 2.0446D-01
 Trust test= 1.27D+00 RLast= 6.82D-02 DXMaxT set to 3.00D-01
 The second derivative matrix:
                          R1        R2        R3        A1        A2
           R1           0.34799
           R2          -0.00674   0.34783
           R3           0.02566   0.02592   0.85906
           A1           0.01391   0.01392  -0.04823   0.14861
           A2          -0.00694  -0.00695   0.02408   0.00569   0.15716
           A3          -0.00696  -0.00697   0.02416   0.00570  -0.00285
           D1           0.00000   0.00000  -0.00000  -0.00000   0.00000
                          A3        D1
           A3           0.15715
           D1           0.00000   0.04080
 ITU=  1  0
 Use linear search instead of GDIIS.
     Eigenvalues ---    0.04080   0.13453   0.16000   0.34246   0.35466
     Eigenvalues ---    0.86616
 RFO step:  Lambda=-4.76420950D-05 EMin= 4.08011075D-02
 Quartic linear search produced a step of  0.35435.
 Iteration  1 RMS(Cart)=  0.00964716 RMS(Int)=  0.00010794
 Iteration  2 RMS(Cart)=  0.00011281 RMS(Int)=  0.00000000
 Iteration  3 RMS(Cart)=  0.00000000 RMS(Int)=  0.00000000
 ITry= 1 IFail=0 DXMaxC= 1.44D-02 DCOld= 1.00D+10 DXMaxT= 3.00D-01 DXLimC= 3.00D+00 Rises=F
 Variable       Old X    -DE/DX   Delta X   Delta X   Delta X     New X
                                 (Linear)    (Quad)   (Total)
    R1        2.07699   0.00206   0.00983  -0.00162   0.00820   2.08520
    R2        2.07695   0.00208   0.00981  -0.00156   0.00825   2.08521
    R3        2.26949  -0.00746  -0.01238   0.00113  -0.01125   2.25824
    A1        2.05891  -0.00313  -0.01257  -0.01381  -0.02639   2.03253
    A2        2.11213   0.00156   0.00628   0.00689   0.01317   2.12530
    A3        2.11214   0.00157   0.00629   0.00692   0.01321   2.12535
    D1       -3.14159  -0.00000   0.00000  -0.00000  -0.00000   3.14159
         Item               Value     Threshold  Converged?
 Maximum Force            0.007463     0.000450     NO 
 RMS     Force            0.003360     0.000300     NO 
 Maximum Displacement     0.014440     0.001800     NO 
 RMS     Displacement     0.009692     0.001200     NO 
 Predicted change in Energy=-1.252978D-04
 Lowest energy point so far.  Saving SCF results.
 GradGradGradGradGradGradGradGradGradGradGradGradGradGradGradGradGradGrad

 Leave Link  103 at Fri Sep 25 11:33:31 2020, MaxMem=   268435456 cpu:               0.5 elap:               0.1
 (Enter /applis/site/cecic/gaussian16/B.01/nehalem/g16/l202.exe)
                          Input orientation:                          
 ---------------------------------------------------------------------
 Center     Atomic      Atomic             Coordinates (Angstroms)
 Number     Number       Type             X           Y           Z
 ---------------------------------------------------------------------
      1          6           0       -0.022090    0.000000   -0.012760
      2          1           0        0.012027   -0.000000    1.090150
      3          1           0        0.950133   -0.000000   -0.534654
      4          8           0       -1.057009    0.000002   -0.610251
 ---------------------------------------------------------------------
                    Distance matrix (angstroms):
                    1          2          3          4
     1  C    0.000000
     2  H    1.103438   0.000000
     3  H    1.103445   1.876175   0.000000
     4  O    1.195011   2.008532   2.008565   0.000000
 Symmetry turned off by external request.
 Stoichiometry    CH2O
 Framework group  C1[X(CH2O)]
 Deg. of freedom     6
 Full point group                 C1      NOp   1
 Rotational constants (GHZ):         284.9150623          39.5009816          34.6913319
 Leave Link  202 at Fri Sep 25 11:33:31 2020, MaxMem=   268435456 cpu:               0.4 elap:               0.1
 (Enter /applis/site/cecic/gaussian16/B.01/nehalem/g16/l301.exe)
 Standard basis: CC-pVTZ (5D, 7F)
 Ernie: Thresh=  0.10000D-02 Tol=  0.10000D-05 Strict=F.
 Ernie:  6 primitive shells out of 68 were deleted.
    88 basis functions,   138 primitive gaussians,   100 cartesian basis functions
     8 alpha electrons        8 beta electrons
       nuclear repulsion energy        31.5077426884 Hartrees.
 IExCor= 4336 DFT=T Ex+Corr=M062X ExCW=0 ScaHFX=  0.540000
 ScaDFX=  1.000000  1.000000  1.000000  1.000000 ScalE2=  1.000000  1.000000
 IRadAn=      5 IRanWt=     -1 IRanGd=            0 ICorTp=0 IEmpDi=  4
 NAtoms=    4 NActive=    4 NUniq=    4 SFac= 1.00D+00 NAtFMM=   60 NAOKFM=F Big=F
 Integral buffers will be    131072 words long.
 Raffenetti 2 integral format.
 Two-electron integral symmetry is turned off.
 Leave Link  301 at Fri Sep 25 11:33:31 2020, MaxMem=   268435456 cpu:               0.4 elap:               0.1
 (Enter /applis/site/cecic/gaussian16/B.01/nehalem/g16/l302.exe)
 NPDir=0 NMtPBC=     1 NCelOv=     1 NCel=       1 NClECP=     1 NCelD=      1
         NCelK=      1 NCelE2=     1 NClLst=     1 CellRange=     0.0.
 One-electron integrals computed using PRISM.
 NBasis=    88 RedAO= T EigKep=  2.34D-03  NBF=    88
 NBsUse=    88 1.00D-06 EigRej= -1.00D+00 NBFU=    88
 Precomputing XC quadrature grid using
 IXCGrd= 4 IRadAn=           5 IRanWt=          -1 IRanGd=           0 AccXCQ= 0.00D+00.
 Generated NRdTot=       0 NPtTot=           0 NUsed=           0 NTot=          32
 NSgBfM=   100   100   100   100   100 MxSgAt=     4 MxSgA2=     4.
 Leave Link  302 at Fri Sep 25 11:33:31 2020, MaxMem=   268435456 cpu:               1.0 elap:               0.2
 (Enter /applis/site/cecic/gaussian16/B.01/nehalem/g16/l303.exe)
 DipDrv:  MaxL=1.
 Leave Link  303 at Fri Sep 25 11:33:31 2020, MaxMem=   268435456 cpu:               0.3 elap:               0.1
 (Enter /applis/site/cecic/gaussian16/B.01/nehalem/g16/l401.exe)
 Initial guess from the checkpoint file:  "input.chk"
 B after Tr=    -0.006569   -0.000001   -0.003787
         Rot=    1.000000   -0.000000   -0.000004    0.000000 Ang=  -0.00 deg.
 Guess basis will be translated and rotated to current coordinates.
 JPrj=2 DoOrth=T DoCkMO=T.
 Leave Link  401 at Fri Sep 25 11:33:31 2020, MaxMem=   268435456 cpu:               0.9 elap:               0.1
 (Enter /applis/site/cecic/gaussian16/B.01/nehalem/g16/l502.exe)
 Keep R1 ints in memory in canonical form, NReq=15087554.
 FoFCou: FMM=F IPFlag=           0 FMFlag=           0 FMFlg1=           0
         NFxFlg=           0 DoJE=F BraDBF=F KetDBF=F FulRan=T
         wScrn=  0.000000 ICntrl=       600 IOpCl=  0 I1Cent=           0 NGrid=           0
         NMat0=    1 NMatS0=   3916 NMatT0=    0 NMatD0=    1 NMtDS0=    0 NMtDT0=    0
 Symmetry not used in FoFCou.
 Two-electron integral symmetry not used.
 Closed shell SCF:
 Using DIIS extrapolation, IDIIS=  1040.
 NGot=   268435456 LenX=   260744388 LenY=   260733947
 Requested convergence on RMS density matrix=1.00D-08 within 128 cycles.
 Requested convergence on MAX density matrix=1.00D-06.
 Requested convergence on             energy=1.00D-06.
 No special actions if energy rises.

 Cycle   1  Pass 1  IDiag  1:
 E= -114.496542533161    
 DIIS: error= 9.15D-04 at cycle   1 NSaved=   1.
 NSaved= 1 IEnMin= 1 EnMin= -114.496542533161     IErMin= 1 ErrMin= 9.15D-04
 ErrMax= 9.15D-04  0.00D+00 EMaxC= 1.00D-01 BMatC= 8.24D-05 BMatP= 8.24D-05
 IDIUse=3 WtCom= 9.91D-01 WtEn= 9.15D-03
 Coeff-Com:  0.100D+01
 Coeff-En:   0.100D+01
 Coeff:      0.100D+01
 Gap=     1.466 Goal=   None    Shift=    0.000
 RMSDP=8.20D-05 MaxDP=1.04D-03              OVMax= 3.54D-03

 Cycle   2  Pass 1  IDiag  1:
 E= -114.496588664963     Delta-E=       -0.000046131802 Rises=F Damp=F
 DIIS: error= 7.68D-04 at cycle   2 NSaved=   2.
 NSaved= 2 IEnMin= 2 EnMin= -114.496588664963     IErMin= 2 ErrMin= 7.68D-04
 ErrMax= 7.68D-04  0.00D+00 EMaxC= 1.00D-01 BMatC= 4.11D-05 BMatP= 8.24D-05
 IDIUse=3 WtCom= 9.92D-01 WtEn= 7.68D-03
 Coeff-Com:  0.379D+00 0.621D+00
 Coeff-En:   0.000D+00 0.100D+01
 Coeff:      0.376D+00 0.624D+00
 Gap=     0.348 Goal=   None    Shift=    0.000
 RMSDP=5.47D-05 MaxDP=8.50D-04 DE=-4.61D-05 OVMax= 3.15D-03

 Cycle   3  Pass 1  IDiag  1:
 E= -114.496606924380     Delta-E=       -0.000018259417 Rises=F Damp=F
 DIIS: error= 4.47D-04 at cycle   3 NSaved=   3.
 NSaved= 3 IEnMin= 3 EnMin= -114.496606924380     IErMin= 3 ErrMin= 4.47D-04
 ErrMax= 4.47D-04  0.00D+00 EMaxC= 1.00D-01 BMatC= 1.36D-05 BMatP= 4.11D-05
 IDIUse=3 WtCom= 9.96D-01 WtEn= 4.47D-03
 Coeff-Com: -0.159D-01 0.360D+00 0.656D+00
 Coeff-En:   0.000D+00 0.268D+00 0.732D+00
 Coeff:     -0.159D-01 0.359D+00 0.656D+00
 Gap=     0.349 Goal=   None    Shift=    0.000
 RMSDP=1.92D-05 MaxDP=3.82D-04 DE=-1.83D-05 OVMax= 1.34D-03

 Cycle   4  Pass 1  IDiag  1:
 E= -114.496616339549     Delta-E=       -0.000009415168 Rises=F Damp=F
 DIIS: error= 6.92D-05 at cycle   4 NSaved=   4.
 NSaved= 4 IEnMin= 4 EnMin= -114.496616339549     IErMin= 4 ErrMin= 6.92D-05
 ErrMax= 6.92D-05  0.00D+00 EMaxC= 1.00D-01 BMatC= 1.61D-07 BMatP= 1.36D-05
 IDIUse=1 WtCom= 1.00D+00 WtEn= 0.00D+00
 Coeff-Com: -0.189D-01 0.564D-01 0.168D+00 0.795D+00
 Coeff:     -0.189D-01 0.564D-01 0.168D+00 0.795D+00
 Gap=     0.348 Goal=   None    Shift=    0.000
 RMSDP=2.80D-06 MaxDP=5.01D-05 DE=-9.42D-06 OVMax= 1.44D-04

 Cycle   5  Pass 1  IDiag  1:
 E= -114.496616481071     Delta-E=       -0.000000141522 Rises=F Damp=F
 DIIS: error= 1.55D-05 at cycle   5 NSaved=   5.
 NSaved= 5 IEnMin= 5 EnMin= -114.496616481071     IErMin= 5 ErrMin= 1.55D-05
 ErrMax= 1.55D-05  0.00D+00 EMaxC= 1.00D-01 BMatC= 8.82D-09 BMatP= 1.61D-07
 IDIUse=1 WtCom= 1.00D+00 WtEn= 0.00D+00
 Coeff-Com: -0.128D-02-0.143D-01-0.118D-01 0.176D+00 0.851D+00
 Coeff:     -0.128D-02-0.143D-01-0.118D-01 0.176D+00 0.851D+00
 Gap=     0.348 Goal=   None    Shift=    0.000
 RMSDP=1.26D-06 MaxDP=2.23D-05 DE=-1.42D-07 OVMax= 6.15D-05

 Cycle   6  Pass 1  IDiag  1:
 E= -114.496616491660     Delta-E=       -0.000000010590 Rises=F Damp=F
 DIIS: error= 2.78D-06 at cycle   6 NSaved=   6.
 NSaved= 6 IEnMin= 6 EnMin= -114.496616491660     IErMin= 6 ErrMin= 2.78D-06
 ErrMax= 2.78D-06  0.00D+00 EMaxC= 1.00D-01 BMatC= 3.00D-10 BMatP= 8.82D-09
 IDIUse=1 WtCom= 1.00D+00 WtEn= 0.00D+00
 Coeff-Com:  0.725D-03-0.537D-02-0.106D-01-0.287D-01 0.108D+00 0.936D+00
 Coeff:      0.725D-03-0.537D-02-0.106D-01-0.287D-01 0.108D+00 0.936D+00
 Gap=     0.348 Goal=   None    Shift=    0.000
 RMSDP=2.59D-07 MaxDP=3.97D-06 DE=-1.06D-08 OVMax= 1.12D-05

 Cycle   7  Pass 1  IDiag  1:
 E= -114.496616492077     Delta-E=       -0.000000000417 Rises=F Damp=F
 DIIS: error= 2.61D-07 at cycle   7 NSaved=   7.
 NSaved= 7 IEnMin= 7 EnMin= -114.496616492077     IErMin= 7 ErrMin= 2.61D-07
 ErrMax= 2.61D-07  0.00D+00 EMaxC= 1.00D-01 BMatC= 2.75D-12 BMatP= 3.00D-10
 IDIUse=1 WtCom= 1.00D+00 WtEn= 0.00D+00
 Coeff-Com: -0.281D-04 0.837D-03 0.103D-02-0.350D-02-0.256D-01-0.707D-01
 Coeff-Com:  0.110D+01
 Coeff:     -0.281D-04 0.837D-03 0.103D-02-0.350D-02-0.256D-01-0.707D-01
 Coeff:      0.110D+01
 Gap=     0.348 Goal=   None    Shift=    0.000
 RMSDP=5.12D-08 MaxDP=8.39D-07 DE=-4.17D-10 OVMax= 1.72D-06

 Cycle   8  Pass 1  IDiag  1:
 E= -114.496616492084     Delta-E=       -0.000000000006 Rises=F Damp=F
 DIIS: error= 7.07D-08 at cycle   8 NSaved=   8.
 NSaved= 8 IEnMin= 8 EnMin= -114.496616492084     IErMin= 8 ErrMin= 7.07D-08
 ErrMax= 7.07D-08  0.00D+00 EMaxC= 1.00D-01 BMatC= 1.84D-13 BMatP= 2.75D-12
 IDIUse=1 WtCom= 1.00D+00 WtEn= 0.00D+00
 Coeff-Com: -0.124D-04-0.549D-05 0.173D-03 0.968D-03 0.113D-02-0.111D-01
 Coeff-Com: -0.114D+00 0.112D+01
 Coeff:     -0.124D-04-0.549D-05 0.173D-03 0.968D-03 0.113D-02-0.111D-01
 Coeff:     -0.114D+00 0.112D+01
 Gap=     0.348 Goal=   None    Shift=    0.000
 RMSDP=9.88D-09 MaxDP=1.46D-07 DE=-6.39D-12 OVMax= 2.65D-07

 SCF Done:  E(RM062X) =  -114.496616492     A.U. after    8 cycles
            NFock=  8  Conv=0.99D-08     -V/T= 2.0050
 KE= 1.139270042225D+02 PE=-3.318122439825D+02 EE= 7.188088057952D+01
 Leave Link  502 at Fri Sep 25 11:33:33 2020, MaxMem=   268435456 cpu:              15.2 elap:               2.0
 (Enter /applis/site/cecic/gaussian16/B.01/nehalem/g16/l701.exe)
 ... and contract with generalized density number  0.
 Compute integral first derivatives.
 Leave Link  701 at Fri Sep 25 11:33:33 2020, MaxMem=   268435456 cpu:               1.0 elap:               0.1
 (Enter /applis/site/cecic/gaussian16/B.01/nehalem/g16/l702.exe)
 L702 exits ... SP integral derivatives will be done elsewhere.
 Leave Link  702 at Fri Sep 25 11:33:34 2020, MaxMem=   268435456 cpu:               0.3 elap:               0.1
 (Enter /applis/site/cecic/gaussian16/B.01/nehalem/g16/l703.exe)
 Integral derivatives from FoFJK, PRISM(SPDF).
 Compute integral first derivatives, UseDBF=F ICtDFT=           0.
 Calling FoFJK, ICntrl=      2127 FMM=F ISym2X=0 I1Cent= 0 IOpClX= 0 NMat=1 NMatS=1 NMatT=0.
 FoFJK:  IHMeth= 1 ICntrl=    2127 DoSepK=F KAlg= 0 I1Cent=           0 FoldK=F
 IRaf=         0 NMat=       1 IRICut=       1 DoRegI=T DoRafI=F ISym2E= 0 IDoP0=0 IntGTp=1.
 FoFCou: FMM=F IPFlag=           0 FMFlag=      100000 FMFlg1=         800
         NFxFlg=           0 DoJE=F BraDBF=F KetDBF=F FulRan=T
         wScrn=  0.000000 ICntrl=      2127 IOpCl=  0 I1Cent=           0 NGrid=           0
         NMat0=    1 NMatS0=      1 NMatT0=    0 NMatD0=    1 NMtDS0=    0 NMtDT0=    0
 Symmetry not used in FoFCou.
 Leave Link  703 at Fri Sep 25 11:33:34 2020, MaxMem=   268435456 cpu:               5.5 elap:               0.7
 (Enter /applis/site/cecic/gaussian16/B.01/nehalem/g16/l716.exe)
 Dipole        = 8.12617704D-01-1.34666158D-06 4.69148035D-01
 -------------------------------------------------------------------
 Center     Atomic                   Forces (Hartrees/Bohr)
 Number     Number              X              Y              Z
 -------------------------------------------------------------------
      1        6           0.000209761    0.000000173    0.000119713
      2        1           0.000251460   -0.000000058    0.000129520
      3        1           0.000236809   -0.000000058    0.000160363
      4        8          -0.000698030   -0.000000056   -0.000409597
 -------------------------------------------------------------------
 Cartesian Forces:  Max     0.000698030 RMS     0.000270054
 Leave Link  716 at Fri Sep 25 11:33:34 2020, MaxMem=   268435456 cpu:               0.3 elap:               0.1
 (Enter /applis/site/cecic/gaussian16/B.01/nehalem/g16/l103.exe)

 GradGradGradGradGradGradGradGradGradGradGradGradGradGradGradGradGradGrad
 Berny optimization.
 Using GEDIIS/GDIIS optimizer.
 FormGI is forming the generalized inverse of G from B-inverse, IUseBI=4.
 Internal  Forces:  Max     0.000809310 RMS     0.000353166
 Search for a local minimum.
 Step number   3 out of a maximum of  100
 All quantities printed in internal units (Hartrees-Bohrs-Radians)
 RMS Force = .35317D-03 SwitMx=.10000D-02 MixMth= 2
 Mixed Optimization -- En-DIIS/RFO-DIIS
 Update second derivatives using D2CorX and points    1    2    3
 DE= -1.25D-04 DEPred=-1.25D-04 R= 9.97D-01
 TightC=F SS=  1.41D+00  RLast= 3.61D-02 DXNew= 5.0454D-01 1.0843D-01
 Trust test= 9.97D-01 RLast= 3.61D-02 DXMaxT set to 3.00D-01
 The second derivative matrix:
                          R1        R2        R3        A1        A2
           R1           0.34719
           R2          -0.00751   0.34711
           R3           0.01855   0.01861   0.92580
           A1           0.01643   0.01640  -0.04643   0.14375
           A2          -0.00822  -0.00821   0.02325   0.00814   0.15592
           A3          -0.00821  -0.00820   0.02318   0.00811  -0.00406
           D1          -0.00000  -0.00000   0.00000   0.00000  -0.00000
                          A3        D1
           A3           0.15595
           D1          -0.00000   0.04080
 ITU=  1  1  0
 Use linear search instead of GDIIS.
     Eigenvalues ---    0.04080   0.12723   0.16000   0.34297   0.35466
     Eigenvalues ---    0.93086
 RFO step:  Lambda=-1.76492981D-06 EMin= 4.08011076D-02
 Quartic linear search produced a step of  0.02896.
 Iteration  1 RMS(Cart)=  0.00117213 RMS(Int)=  0.00000089
 Iteration  2 RMS(Cart)=  0.00000091 RMS(Int)=  0.00000000
 ITry= 1 IFail=0 DXMaxC= 1.66D-03 DCOld= 1.00D+10 DXMaxT= 3.00D-01 DXLimC= 3.00D+00 Rises=F
 Variable       Old X    -DE/DX   Delta X   Delta X   Delta X     New X
                                 (Linear)    (Quad)   (Total)
    R1        2.08520   0.00014   0.00024   0.00031   0.00054   2.08574
    R2        2.08521   0.00013   0.00024   0.00029   0.00053   2.08574
    R3        2.25824   0.00081  -0.00033   0.00099   0.00067   2.25891
    A1        2.03253  -0.00035  -0.00076  -0.00169  -0.00246   2.03007
    A2        2.12530   0.00018   0.00038   0.00086   0.00124   2.12654
    A3        2.12535   0.00017   0.00038   0.00083   0.00122   2.12657
    D1        3.14159   0.00000  -0.00000   0.00000   0.00000  -3.14159
         Item               Value     Threshold  Converged?
 Maximum Force            0.000809     0.000450     NO 
 RMS     Force            0.000353     0.000300     NO 
 Maximum Displacement     0.001663     0.001800     YES
 RMS     Displacement     0.001172     0.001200     YES
 Predicted change in Energy=-9.869206D-07
 Lowest energy point so far.  Saving SCF results.
 GradGradGradGradGradGradGradGradGradGradGradGradGradGradGradGradGradGrad

 Leave Link  103 at Fri Sep 25 11:33:34 2020, MaxMem=   268435456 cpu:               0.2 elap:               0.1
 (Enter /applis/site/cecic/gaussian16/B.01/nehalem/g16/l202.exe)
                          Input orientation:                          
 ---------------------------------------------------------------------
 Center     Atomic      Atomic             Coordinates (Angstroms)
 Number     Number       Type             X           Y           Z
 ---------------------------------------------------------------------
      1          6           0       -0.022578    0.000001   -0.013040
      2          1           0        0.012907   -0.000000    1.090116
      3          1           0        0.950531   -0.000000   -0.533876
      4          8           0       -1.057799    0.000002   -0.610714
 ---------------------------------------------------------------------
                    Distance matrix (angstroms):
                    1          2          3          4
     1  C    0.000000
     2  H    1.103726   0.000000
     3  H    1.103726   1.875230   0.000000
     4  O    1.195365   2.009785   2.009799   0.000000
 Symmetry turned off by external request.
 Stoichiometry    CH2O
 Framework group  C1[X(CH2O)]
 Deg. of freedom     6
 Full point group                 C1      NOp   1
 Rotational constants (GHZ):         285.2022342          39.4610451          34.6647710
 Leave Link  202 at Fri Sep 25 11:33:34 2020, MaxMem=   268435456 cpu:               0.0 elap:               0.0
 (Enter /applis/site/cecic/gaussian16/B.01/nehalem/g16/l301.exe)
 Standard basis: CC-pVTZ (5D, 7F)
 Ernie: Thresh=  0.10000D-02 Tol=  0.10000D-05 Strict=F.
 Ernie:  6 primitive shells out of 68 were deleted.
    88 basis functions,   138 primitive gaussians,   100 cartesian basis functions
     8 alpha electrons        8 beta electrons
       nuclear repulsion energy        31.4975027228 Hartrees.
 IExCor= 4336 DFT=T Ex+Corr=M062X ExCW=0 ScaHFX=  0.540000
 ScaDFX=  1.000000  1.000000  1.000000  1.000000 ScalE2=  1.000000  1.000000
 IRadAn=      5 IRanWt=     -1 IRanGd=            0 ICorTp=0 IEmpDi=  4
 NAtoms=    4 NActive=    4 NUniq=    4 SFac= 1.00D+00 NAtFMM=   60 NAOKFM=F Big=F
 Integral buffers will be    131072 words long.
 Raffenetti 2 integral format.
 Two-electron integral symmetry is turned off.
 Leave Link  301 at Fri Sep 25 11:33:35 2020, MaxMem=   268435456 cpu:               0.4 elap:               0.1
 (Enter /applis/site/cecic/gaussian16/B.01/nehalem/g16/l302.exe)
 NPDir=0 NMtPBC=     1 NCelOv=     1 NCel=       1 NClECP=     1 NCelD=      1
         NCelK=      1 NCelE2=     1 NClLst=     1 CellRange=     0.0.
 One-electron integrals computed using PRISM.
 NBasis=    88 RedAO= T EigKep=  2.34D-03  NBF=    88
 NBsUse=    88 1.00D-06 EigRej= -1.00D+00 NBFU=    88
 Precomputing XC quadrature grid using
 IXCGrd= 4 IRadAn=           5 IRanWt=          -1 IRanGd=           0 AccXCQ= 0.00D+00.
 Generated NRdTot=       0 NPtTot=           0 NUsed=           0 NTot=          32
 NSgBfM=   100   100   100   100   100 MxSgAt=     4 MxSgA2=     4.
 Leave Link  302 at Fri Sep 25 11:33:35 2020, MaxMem=   268435456 cpu:               1.1 elap:               0.2
 (Enter /applis/site/cecic/gaussian16/B.01/nehalem/g16/l303.exe)
 DipDrv:  MaxL=1.
 Leave Link  303 at Fri Sep 25 11:33:35 2020, MaxMem=   268435456 cpu:               0.3 elap:               0.1
 (Enter /applis/site/cecic/gaussian16/B.01/nehalem/g16/l401.exe)
 Initial guess from the checkpoint file:  "input.chk"
 B after Tr=    -0.000943    0.000001   -0.000545
         Rot=    1.000000    0.000000    0.000002   -0.000000 Ang=   0.00 deg.
 Guess basis will be translated and rotated to current coordinates.
 JPrj=2 DoOrth=T DoCkMO=T.
 Leave Link  401 at Fri Sep 25 11:33:35 2020, MaxMem=   268435456 cpu:               0.9 elap:               0.1
 (Enter /applis/site/cecic/gaussian16/B.01/nehalem/g16/l502.exe)
 Keep R1 ints in memory in canonical form, NReq=15087554.
 FoFCou: FMM=F IPFlag=           0 FMFlag=           0 FMFlg1=           0
         NFxFlg=           0 DoJE=F BraDBF=F KetDBF=F FulRan=T
         wScrn=  0.000000 ICntrl=       600 IOpCl=  0 I1Cent=           0 NGrid=           0
         NMat0=    1 NMatS0=   3916 NMatT0=    0 NMatD0=    1 NMtDS0=    0 NMtDT0=    0
 Symmetry not used in FoFCou.
 Two-electron integral symmetry not used.
 Closed shell SCF:
 Using DIIS extrapolation, IDIIS=  1040.
 NGot=   268435456 LenX=   260744388 LenY=   260733947
 Requested convergence on RMS density matrix=1.00D-08 within 128 cycles.
 Requested convergence on MAX density matrix=1.00D-06.
 Requested convergence on             energy=1.00D-06.
 No special actions if energy rises.

 Cycle   1  Pass 1  IDiag  1:
 E= -114.496617229246    
 DIIS: error= 7.01D-05 at cycle   1 NSaved=   1.
 NSaved= 1 IEnMin= 1 EnMin= -114.496617229246     IErMin= 1 ErrMin= 7.01D-05
 ErrMax= 7.01D-05  0.00D+00 EMaxC= 1.00D-01 BMatC= 3.39D-07 BMatP= 3.39D-07
 IDIUse=1 WtCom= 1.00D+00 WtEn= 0.00D+00
 Coeff-Com:  0.100D+01
 Coeff:      0.100D+01
 Gap=     1.463 Goal=   None    Shift=    0.000
 RMSDP=4.39D-06 MaxDP=6.19D-05              OVMax= 1.72D-04

 Cycle   2  Pass 1  IDiag  1:
 E= -114.496617445161     Delta-E=       -0.000000215915 Rises=F Damp=F
 DIIS: error= 3.28D-05 at cycle   2 NSaved=   2.
 NSaved= 2 IEnMin= 2 EnMin= -114.496617445161     IErMin= 2 ErrMin= 3.28D-05
 ErrMax= 3.28D-05  0.00D+00 EMaxC= 1.00D-01 BMatC= 5.43D-08 BMatP= 3.39D-07
 IDIUse=1 WtCom= 1.00D+00 WtEn= 0.00D+00
 Coeff-Com:  0.167D+00 0.833D+00
 Coeff:      0.167D+00 0.833D+00
 Gap=     0.348 Goal=   None    Shift=    0.000
 RMSDP=2.20D-06 MaxDP=4.38D-05 DE=-2.16D-07 OVMax= 1.69D-04

 Cycle   3  Pass 1  IDiag  1:
 E= -114.496617443254     Delta-E=        0.000000001907 Rises=F Damp=F
 DIIS: error= 3.39D-05 at cycle   3 NSaved=   3.
 NSaved= 3 IEnMin= 2 EnMin= -114.496617445161     IErMin= 2 ErrMin= 3.28D-05
 ErrMax= 3.39D-05  0.00D+00 EMaxC= 1.00D-01 BMatC= 6.45D-08 BMatP= 5.43D-08
 IDIUse=1 WtCom= 1.00D+00 WtEn= 0.00D+00
 Coeff-Com: -0.173D-01 0.528D+00 0.490D+00
 Coeff:     -0.173D-01 0.528D+00 0.490D+00
 Gap=     0.348 Goal=   None    Shift=    0.000
 RMSDP=1.35D-06 MaxDP=2.33D-05 DE= 1.91D-09 OVMax= 8.76D-05

 Cycle   4  Pass 1  IDiag  1:
 E= -114.496617488330     Delta-E=       -0.000000045076 Rises=F Damp=F
 DIIS: error= 3.61D-06 at cycle   4 NSaved=   4.
 NSaved= 4 IEnMin= 4 EnMin= -114.496617488330     IErMin= 4 ErrMin= 3.61D-06
 ErrMax= 3.61D-06  0.00D+00 EMaxC= 1.00D-01 BMatC= 5.36D-10 BMatP= 5.43D-08
 IDIUse=1 WtCom= 1.00D+00 WtEn= 0.00D+00
 Coeff-Com: -0.134D-01 0.143D+00 0.154D+00 0.717D+00
 Coeff:     -0.134D-01 0.143D+00 0.154D+00 0.717D+00
 Gap=     0.348 Goal=   None    Shift=    0.000
 RMSDP=1.65D-07 MaxDP=2.32D-06 DE=-4.51D-08 OVMax= 6.34D-06

 Cycle   5  Pass 1  IDiag  1:
 E= -114.496617488738     Delta-E=       -0.000000000408 Rises=F Damp=F
 DIIS: error= 6.08D-07 at cycle   5 NSaved=   5.
 NSaved= 5 IEnMin= 5 EnMin= -114.496617488738     IErMin= 5 ErrMin= 6.08D-07
 ErrMax= 6.08D-07  0.00D+00 EMaxC= 1.00D-01 BMatC= 2.29D-11 BMatP= 5.36D-10
 IDIUse=1 WtCom= 1.00D+00 WtEn= 0.00D+00
 Coeff-Com:  0.771D-03-0.366D-01-0.280D-01 0.817D-01 0.982D+00
 Coeff:      0.771D-03-0.366D-01-0.280D-01 0.817D-01 0.982D+00
 Gap=     0.348 Goal=   None    Shift=    0.000
 RMSDP=8.81D-08 MaxDP=1.18D-06 DE=-4.08D-10 OVMax= 2.35D-06

 Cycle   6  Pass 1  IDiag  1:
 E= -114.496617488764     Delta-E=       -0.000000000025 Rises=F Damp=F
 DIIS: error= 1.36D-07 at cycle   6 NSaved=   6.
 NSaved= 6 IEnMin= 6 EnMin= -114.496617488764     IErMin= 6 ErrMin= 1.36D-07
 ErrMax= 1.36D-07  0.00D+00 EMaxC= 1.00D-01 BMatC= 1.07D-12 BMatP= 2.29D-11
 IDIUse=1 WtCom= 1.00D+00 WtEn= 0.00D+00
 Coeff-Com:  0.354D-03-0.626D-02-0.287D-02-0.175D-01 0.891D-01 0.937D+00
 Coeff:      0.354D-03-0.626D-02-0.287D-02-0.175D-01 0.891D-01 0.937D+00
 Gap=     0.348 Goal=   None    Shift=    0.000
 RMSDP=6.82D-09 MaxDP=1.12D-07 DE=-2.54D-11 OVMax= 3.71D-07

 SCF Done:  E(RM062X) =  -114.496617489     A.U. after    6 cycles
            NFock=  6  Conv=0.68D-08     -V/T= 2.0050
 KE= 1.139244395358D+02 PE=-3.317895163781D+02 EE= 7.187095663073D+01
 Leave Link  502 at Fri Sep 25 11:33:37 2020, MaxMem=   268435456 cpu:              11.8 elap:               1.6
 (Enter /applis/site/cecic/gaussian16/B.01/nehalem/g16/l701.exe)
 ... and contract with generalized density number  0.
 Compute integral first derivatives.
 Leave Link  701 at Fri Sep 25 11:33:37 2020, MaxMem=   268435456 cpu:               1.0 elap:               0.1
 (Enter /applis/site/cecic/gaussian16/B.01/nehalem/g16/l702.exe)
 L702 exits ... SP integral derivatives will be done elsewhere.
 Leave Link  702 at Fri Sep 25 11:33:37 2020, MaxMem=   268435456 cpu:               0.3 elap:               0.1
 (Enter /applis/site/cecic/gaussian16/B.01/nehalem/g16/l703.exe)
 Integral derivatives from FoFJK, PRISM(SPDF).
 Compute integral first derivatives, UseDBF=F ICtDFT=           0.
 Calling FoFJK, ICntrl=      2127 FMM=F ISym2X=0 I1Cent= 0 IOpClX= 0 NMat=1 NMatS=1 NMatT=0.
 FoFJK:  IHMeth= 1 ICntrl=    2127 DoSepK=F KAlg= 0 I1Cent=           0 FoldK=F
 IRaf=         0 NMat=       1 IRICut=       1 DoRegI=T DoRafI=F ISym2E= 0 IDoP0=0 IntGTp=1.
 FoFCou: FMM=F IPFlag=           0 FMFlag=      100000 FMFlg1=         800
         NFxFlg=           0 DoJE=F BraDBF=F KetDBF=F FulRan=T
         wScrn=  0.000000 ICntrl=      2127 IOpCl=  0 I1Cent=           0 NGrid=           0
         NMat0=    1 NMatS0=      1 NMatT0=    0 NMatD0=    1 NMtDS0=    0 NMtDT0=    0
 Symmetry not used in FoFCou.
 Leave Link  703 at Fri Sep 25 11:33:38 2020, MaxMem=   268435456 cpu:               5.5 elap:               0.7
 (Enter /applis/site/cecic/gaussian16/B.01/nehalem/g16/l716.exe)
 Dipole        = 8.13179518D-01-1.08992907D-06 4.69478962D-01
 -------------------------------------------------------------------
 Center     Atomic                   Forces (Hartrees/Bohr)
 Number     Number              X              Y              Z
 -------------------------------------------------------------------
      1        6           0.000011193   -0.000000103    0.000005268
      2        1           0.000006757    0.000000035   -0.000031812
      3        1          -0.000020798    0.000000035    0.000029168
      4        8           0.000002848    0.000000034   -0.000002624
 -------------------------------------------------------------------
 Cartesian Forces:  Max     0.000031812 RMS     0.000014460
 Leave Link  716 at Fri Sep 25 11:33:38 2020, MaxMem=   268435456 cpu:               0.3 elap:               0.1
 (Enter /applis/site/cecic/gaussian16/B.01/nehalem/g16/l103.exe)

 GradGradGradGradGradGradGradGradGradGradGradGradGradGradGradGradGradGrad
 Berny optimization.
 Using GEDIIS/GDIIS optimizer.
 FormGI is forming the generalized inverse of G from B-inverse, IUseBI=4.
 Internal  Forces:  Max     0.000032078 RMS     0.000018654
 Search for a local minimum.
 Step number   4 out of a maximum of  100
 All quantities printed in internal units (Hartrees-Bohrs-Radians)
 RMS Force = .18654D-04 SwitMx=.10000D-02 MixMth= 2
 Mixed Optimization -- En-DIIS/RFO-DIIS
 Swapping is turned off.
 Update second derivatives using D2CorX and points    1    2    3    4
 DE= -9.97D-07 DEPred=-9.87D-07 R= 1.01D+00
 Trust test= 1.01D+00 RLast= 3.17D-03 DXMaxT set to 3.00D-01
 The second derivative matrix:
                          R1        R2        R3        A1        A2
           R1           0.35247
           R2          -0.00225   0.35233
           R3           0.03255   0.03275   0.92690
           A1           0.01180   0.01166  -0.04226   0.13909
           A2          -0.00583  -0.00576   0.02135   0.01040   0.15483
           A3          -0.00597  -0.00590   0.02090   0.01051  -0.00523
           D1           0.00001   0.00001   0.00003  -0.00001   0.00000
                          A3        D1
           A3           0.15471
           D1           0.00000   0.04080
 ITU=  0  1  1  0
     Eigenvalues ---    0.04080   0.12289   0.16000   0.34912   0.35466
     Eigenvalues ---    0.93368
 En-DIIS/RFO-DIIS/Sim-DIIS IScMMF=       -3 using points:     4    3
 RFO step:  Lambda=-7.92185239D-09.
 NNeg= 0 NGDIIS= 2 SimSw=  2.50D-01 Rises=F DC= -9.97D-07 SmlDif=  1.00D-05
 NRisDI= 0 DoIntr=F SqrtH=F CThrHd= 10.0 CDAdj=  3.0
 RMS Error=  0.6946517876D-04 NUsed= 2 OKEnD=F EnDIS=F
 InvSVX:  RCond= 2.52D-06 Info=           0 Equed=N FErr=  9.57D-16 BErr=  7.16D-17
 DidBck=F Rises=F RFO-DIIS coefs:    1.03223   -0.03223
 Iteration  1 RMS(Cart)=  0.00007482 RMS(Int)=  0.00000000
 Iteration  2 RMS(Cart)=  0.00000000 RMS(Int)=  0.00000000
 ITry= 1 IFail=0 DXMaxC= 1.31D-04 DCOld= 1.00D+10 DXMaxT= 3.00D-01 DXLimC= 3.00D+00 Rises=F
 Variable       Old X    -DE/DX   Delta X   Delta X   Delta X     New X
                                 (Linear)    (Quad)   (Total)
    R1        2.08574  -0.00003   0.00002  -0.00010  -0.00008   2.08566
    R2        2.08574  -0.00003   0.00002  -0.00010  -0.00009   2.08565
    R3        2.25891  -0.00000   0.00002  -0.00002  -0.00000   2.25891
    A1        2.03007  -0.00002  -0.00008  -0.00003  -0.00011   2.02996
    A2        2.12654   0.00001   0.00004   0.00001   0.00005   2.12660
    A3        2.12657   0.00001   0.00004   0.00002   0.00006   2.12663
    D1       -3.14159  -0.00000   0.00000  -0.00000  -0.00000   3.14159
         Item               Value     Threshold  Converged?
 Maximum Force            0.000032     0.000450     YES
 RMS     Force            0.000019     0.000300     YES
 Maximum Displacement     0.000131     0.001800     YES
 RMS     Displacement     0.000075     0.001200     YES
 Predicted change in Energy=-4.109096D-09
 Optimization completed.
    -- Stationary point found.
                           ----------------------------
                           !   Optimized Parameters   !
                           ! (Angstroms and Degrees)  !
 --------------------------                            --------------------------
 ! Name  Definition              Value          Derivative Info.                !
 --------------------------------------------------------------------------------
 ! R1    R(1,2)                  1.1037         -DE/DX =    0.0                 !
 ! R2    R(1,3)                  1.1037         -DE/DX =    0.0                 !
 ! R3    R(1,4)                  1.1954         -DE/DX =    0.0                 !
 ! A1    A(2,1,3)              116.3146         -DE/DX =    0.0                 !
 ! A2    A(2,1,4)              121.842          -DE/DX =    0.0                 !
 ! A3    A(3,1,4)              121.8434         -DE/DX =    0.0                 !
 ! D1    D(2,1,4,3)            180.0001         -DE/DX =    0.0                 !
 --------------------------------------------------------------------------------
 Lowest energy point so far.  Saving SCF results.
 Largest change from initial coordinates is atom    1       0.002 Angstoms.
 GradGradGradGradGradGradGradGradGradGradGradGradGradGradGradGradGradGrad

 Leave Link  103 at Fri Sep 25 11:33:38 2020, MaxMem=   268435456 cpu:               0.2 elap:               0.1
 (Enter /applis/site/cecic/gaussian16/B.01/nehalem/g16/l202.exe)
                          Input orientation:                          
 ---------------------------------------------------------------------
 Center     Atomic      Atomic             Coordinates (Angstroms)
 Number     Number       Type             X           Y           Z
 ---------------------------------------------------------------------
      1          6           0       -0.022578    0.000001   -0.013040
      2          1           0        0.012907   -0.000000    1.090116
      3          1           0        0.950531   -0.000000   -0.533876
      4          8           0       -1.057799    0.000002   -0.610714
 ---------------------------------------------------------------------
                    Distance matrix (angstroms):
                    1          2          3          4
     1  C    0.000000
     2  H    1.103726   0.000000
     3  H    1.103726   1.875230   0.000000
     4  O    1.195365   2.009785   2.009799   0.000000
 Symmetry turned off by external request.
 Stoichiometry    CH2O
 Framework group  C1[X(CH2O)]
 Deg. of freedom     6
 Full point group                 C1      NOp   1
 Rotational constants (GHZ):         285.2022342          39.4610451          34.6647710
 Leave Link  202 at Fri Sep 25 11:33:38 2020, MaxMem=   268435456 cpu:               0.0 elap:               0.0
 (Enter /applis/site/cecic/gaussian16/B.01/nehalem/g16/l601.exe)
 Copying SCF densities to generalized density rwf, IOpCl= 0 IROHF=0.

 **********************************************************************

            Population analysis using the SCF Density.

 **********************************************************************

 Alpha  occ. eigenvalues --  -19.64438 -10.63843  -1.19262  -0.72729  -0.58172
 Alpha  occ. eigenvalues --   -0.53840  -0.47787  -0.34658
 Alpha virt. eigenvalues --    0.00174   0.08201   0.14221   0.18448   0.32709
 Alpha virt. eigenvalues --    0.33555   0.36814   0.47267   0.48548   0.55015
 Alpha virt. eigenvalues --    0.57156   0.59821   0.70715   0.75517   0.80099
 Alpha virt. eigenvalues --    0.87138   0.92447   1.02518   1.04406   1.05877
 Alpha virt. eigenvalues --    1.14514   1.17166   1.29812   1.45799   1.56754
 Alpha virt. eigenvalues --    1.73003   1.77984   1.92787   2.05988   2.06333
 Alpha virt. eigenvalues --    2.09205   2.22815   2.36146   2.56446   2.59407
 Alpha virt. eigenvalues --    2.67424   2.76020   2.83394   2.87371   2.91678
 Alpha virt. eigenvalues --    2.96359   3.13604   3.14993   3.18474   3.28463
 Alpha virt. eigenvalues --    3.29769   3.31586   3.38346   3.57224   3.67474
 Alpha virt. eigenvalues --    3.80322   3.83148   3.83579   3.90553   4.06385
 Alpha virt. eigenvalues --    4.11908   4.37786   4.40495   4.56135   4.65207
 Alpha virt. eigenvalues --    4.67990   4.69986   4.97296   5.02878   5.17283
 Alpha virt. eigenvalues --    5.25263   5.26081   5.61149   5.69562   5.84606
 Alpha virt. eigenvalues --    6.14270   6.14792   6.35704   6.38818   6.78598
 Alpha virt. eigenvalues --    6.88793   7.00048   7.04694  10.49988  12.94759
          Condensed to atoms (all electrons):
[...]
 IDIUse=3 WtCom= 9.88D-01 WtEn= 1.20D-02
 Coeff-Com: -0.312D-01 0.301D+00 0.730D+00
 Coeff-En:   0.000D+00 0.000D+00 0.100D+01
 Coeff:     -0.308D-01 0.297D+00 0.734D+00
 Gap=     0.470 Goal=   None    Shift=    0.000
 RMSDP=5.71D-05 MaxDP=1.61D-03 DE=-5.19D-04 OVMax= 5.88D-03

 Cycle   4  Pass 1  IDiag  1:
 E= -113.914598943375     Delta-E=       -0.000115572620 Rises=F Damp=F
 DIIS: error= 4.68D-04 at cycle   4 NSaved=   4.
 NSaved= 4 IEnMin= 4 EnMin= -113.914598943375     IErMin= 4 ErrMin= 4.68D-04
 ErrMax= 4.68D-04  0.00D+00 EMaxC= 1.00D-01 BMatC= 1.94D-05 BMatP= 1.29D-04
 IDIUse=3 WtCom= 9.95D-01 WtEn= 4.68D-03
 Coeff-Com: -0.504D-02-0.362D-01 0.218D+00 0.824D+00
 Coeff-En:   0.000D+00 0.000D+00 0.000D+00 0.100D+01
 Coeff:     -0.502D-02-0.360D-01 0.216D+00 0.825D+00
 Gap=     0.468 Goal=   None    Shift=    0.000
 RMSDP=2.54D-05 MaxDP=5.86D-04 DE=-1.16D-04 OVMax= 1.40D-03

 Cycle   5  Pass 1  IDiag  1:
 E= -113.914617570535     Delta-E=       -0.000018627160 Rises=F Damp=F
 DIIS: error= 1.53D-04 at cycle   5 NSaved=   5.
 NSaved= 5 IEnMin= 5 EnMin= -113.914617570535     IErMin= 5 ErrMin= 1.53D-04
 ErrMax= 1.53D-04  0.00D+00 EMaxC= 1.00D-01 BMatC= 1.17D-06 BMatP= 1.94D-05
 IDIUse=3 WtCom= 9.98D-01 WtEn= 1.53D-03
 Coeff-Com:  0.514D-02-0.422D-01-0.498D-01-0.443D-01 0.113D+01
 Coeff-En:   0.000D+00 0.000D+00 0.000D+00 0.000D+00 0.100D+01
 Coeff:      0.513D-02-0.421D-01-0.497D-01-0.442D-01 0.113D+01
 Gap=     0.469 Goal=   None    Shift=    0.000
 RMSDP=8.80D-06 MaxDP=2.38D-04 DE=-1.86D-05 OVMax= 1.04D-03

 Cycle   6  Pass 1  IDiag  1:
 E= -113.914620651317     Delta-E=       -0.000003080782 Rises=F Damp=F
 DIIS: error= 5.77D-05 at cycle   6 NSaved=   6.
 NSaved= 6 IEnMin= 6 EnMin= -113.914620651317     IErMin= 6 ErrMin= 5.77D-05
 ErrMax= 5.77D-05  0.00D+00 EMaxC= 1.00D-01 BMatC= 2.30D-07 BMatP= 1.17D-06
 IDIUse=1 WtCom= 1.00D+00 WtEn= 0.00D+00
 Coeff-Com: -0.737D-03 0.134D-01 0.998D-02-0.114D+00-0.227D+00 0.132D+01
 Coeff:     -0.737D-03 0.134D-01 0.998D-02-0.114D+00-0.227D+00 0.132D+01
 Gap=     0.469 Goal=   None    Shift=    0.000
 RMSDP=3.78D-06 MaxDP=1.02D-04 DE=-3.08D-06 OVMax= 4.62D-04

 Cycle   7  Pass 1  IDiag  1:
 E= -113.914621206747     Delta-E=       -0.000000555430 Rises=F Damp=F
 DIIS: error= 1.82D-05 at cycle   7 NSaved=   7.
 NSaved= 7 IEnMin= 7 EnMin= -113.914621206747     IErMin= 7 ErrMin= 1.82D-05
 ErrMax= 1.82D-05  0.00D+00 EMaxC= 1.00D-01 BMatC= 1.84D-08 BMatP= 2.30D-07
 IDIUse=1 WtCom= 1.00D+00 WtEn= 0.00D+00
 Coeff-Com: -0.234D-03 0.309D-03 0.625D-02 0.317D-01-0.614D-01-0.427D+00
 Coeff-Com:  0.145D+01
 Coeff:     -0.234D-03 0.309D-03 0.625D-02 0.317D-01-0.614D-01-0.427D+00
 Coeff:      0.145D+01
 Gap=     0.469 Goal=   None    Shift=    0.000
 RMSDP=1.78D-06 MaxDP=5.70D-05 DE=-5.55D-07 OVMax= 2.15D-04

 Cycle   8  Pass 1  IDiag  1:
 E= -113.914621272352     Delta-E=       -0.000000065605 Rises=F Damp=F
 DIIS: error= 4.50D-06 at cycle   8 NSaved=   8.
 NSaved= 8 IEnMin= 8 EnMin= -113.914621272352     IErMin= 8 ErrMin= 4.50D-06
 ErrMax= 4.50D-06  0.00D+00 EMaxC= 1.00D-01 BMatC= 6.30D-10 BMatP= 1.84D-08
 IDIUse=1 WtCom= 1.00D+00 WtEn= 0.00D+00
 Coeff-Com:  0.118D-03-0.953D-03-0.133D-02-0.412D-02 0.306D-01 0.652D-01
 Coeff-Com: -0.457D+00 0.137D+01
 Coeff:      0.118D-03-0.953D-03-0.133D-02-0.412D-02 0.306D-01 0.652D-01
 Coeff:     -0.457D+00 0.137D+01
 Gap=     0.469 Goal=   None    Shift=    0.000
 RMSDP=3.23D-07 MaxDP=7.73D-06 DE=-6.56D-08 OVMax= 2.93D-05

 Cycle   9  Pass 1  IDiag  1:
 E= -113.914621274218     Delta-E=       -0.000000001866 Rises=F Damp=F
 DIIS: error= 7.12D-07 at cycle   9 NSaved=   9.
 NSaved= 9 IEnMin= 9 EnMin= -113.914621274218     IErMin= 9 ErrMin= 7.12D-07
 ErrMax= 7.12D-07  0.00D+00 EMaxC= 1.00D-01 BMatC= 1.51D-11 BMatP= 6.30D-10
 IDIUse=1 WtCom= 1.00D+00 WtEn= 0.00D+00
 Coeff-Com: -0.172D-04 0.190D-03 0.170D-03-0.552D-03-0.433D-02 0.254D-03
 Coeff-Com:  0.473D-01-0.286D+00 0.124D+01
 Coeff:     -0.172D-04 0.190D-03 0.170D-03-0.552D-03-0.433D-02 0.254D-03
 Coeff:      0.473D-01-0.286D+00 0.124D+01
 Gap=     0.469 Goal=   None    Shift=    0.000
 RMSDP=1.36D-07 MaxDP=4.27D-06 DE=-1.87D-09 OVMax= 3.99D-06

 Cycle  10  Pass 1  IDiag  1:
 E= -113.914621274254     Delta-E=       -0.000000000036 Rises=F Damp=F
 DIIS: error= 6.89D-08 at cycle  10 NSaved=  10.
 NSaved=10 IEnMin=10 EnMin= -113.914621274254     IErMin=10 ErrMin= 6.89D-08
 ErrMax= 6.89D-08  0.00D+00 EMaxC= 1.00D-01 BMatC= 3.54D-13 BMatP= 1.51D-11
 IDIUse=1 WtCom= 1.00D+00 WtEn= 0.00D+00
 Coeff-Com:  0.784D-06-0.147D-04-0.362D-05 0.233D-03-0.227D-04-0.773D-03
 Coeff-Com: -0.583D-03 0.282D-01-0.282D+00 0.125D+01
 Coeff:      0.784D-06-0.147D-04-0.362D-05 0.233D-03-0.227D-04-0.773D-03
 Coeff:     -0.583D-03 0.282D-01-0.282D+00 0.125D+01
 Gap=     0.469 Goal=   None    Shift=    0.000
 RMSDP=1.34D-08 MaxDP=4.10D-07 DE=-3.57D-11 OVMax= 4.52D-07

 Cycle  11  Pass 1  IDiag  1:
 E= -113.914621274255     Delta-E=       -0.000000000002 Rises=F Damp=F
 DIIS: error= 1.39D-08 at cycle  11 NSaved=  11.
 NSaved=11 IEnMin=11 EnMin= -113.914621274255     IErMin=11 ErrMin= 1.39D-08
 ErrMax= 1.39D-08  0.00D+00 EMaxC= 1.00D-01 BMatC= 9.26D-15 BMatP= 3.54D-13
 IDIUse=1 WtCom= 1.00D+00 WtEn= 0.00D+00
 Coeff-Com:  0.678D-07 0.107D-05-0.308D-05-0.670D-04 0.104D-03 0.329D-03
 Coeff-Com: -0.125D-02-0.138D-02 0.563D-01-0.384D+00 0.133D+01
 Coeff:      0.678D-07 0.107D-05-0.308D-05-0.670D-04 0.104D-03 0.329D-03
 Coeff:     -0.125D-02-0.138D-02 0.563D-01-0.384D+00 0.133D+01
 Gap=     0.469 Goal=   None    Shift=    0.000
 RMSDP=4.38D-09 MaxDP=1.35D-07 DE=-1.65D-12 OVMax= 8.96D-08

 SCF Done:  E(RHF) =  -113.914621274     A.U. after   11 cycles
            NFock= 11  Conv=0.44D-08     -V/T= 2.0015
 KE= 1.137444216148D+02 PE=-3.314930695973D+02 EE= 7.233652398547D+01
 Leave Link  502 at Fri Sep 25 11:33:56 2020, MaxMem=   327680000 cpu:               9.3 elap:               1.9
 (Enter /applis/site/cecic/gaussian16/B.01/nehalem/g16/l801.exe)
 Windowed orbitals will be sorted by symmetry type.
 ExpMin= 2.53D-02 ExpMax= 1.53D+04 ExpMxC= 5.22D+02 IAcc=3 IRadAn=         5 AccDes= 0.00D+00
 HarFok:  IExCor=  205 AccDes= 0.00D+00 IRadAn=         5 IDoV=-2 UseB2=F ITyADJ=14
 ICtDFT= 12500011 ScaDFX=  1.000000  1.000000  1.000000  1.000000
 Largest valence mixing into a core orbital is  1.99D-04
 Largest core mixing into a valence orbital is  2.94D-05
 Range of M.O.s used for correlation:     3   138
 NBasis=   138 NAE=     8 NBE=     8 NFC=     2 NFV=     0
 NROrb=    136 NOA=     6 NOB=     6 NVA=   130 NVB=   130

 **** Warning!!: The largest alpha MO coefficient is  0.33311596D+02

 Leave Link  801 at Fri Sep 25 11:33:56 2020, MaxMem=   327680000 cpu:               0.6 elap:               0.1
 (Enter /applis/site/cecic/gaussian16/B.01/nehalem/g16/l804.exe)
 Closed-shell transformation, MDV=   327680000 ITran=4 ISComp=1.
 Unit  1 TFree=        607253 TCopy=        487135.
 Semi-Direct transformation.
 ModeAB=           2 MOrb=             6 LenV=     327043799
 LASXX=      7286295 LTotXX=     7286295 LenRXX=     7286295
 LTotAB=     7445736 MaxLAS=    10510080 LenRXY=    10510080
 NonZer=    14572590 LenScr=    22413312 LnRSAI=           0
 LnScr1=           0 LExtra=           0 Total=     40209687
 MaxDsk=          -1 SrtSym=           F ITran=            4
 DoSDTr:  NPSUse=  8
 JobTyp=0 Pass  1:  I=   1 to   6.
 (rs|ai) integrals will be sorted in core.
 Complete sort for first half transformation.
 First half transformation complete.
 Complete sort for second half transformation.
 Second half transformation complete.
 SymMOI:  orbitals are not symmetric.
 Spin components of T(2) and E(2):
     alpha-alpha T2 =       0.1361563536D-01 E2=     -0.4788791220D-01
     alpha-beta  T2 =       0.8424792924D-01 E2=     -0.3055573284D+00
     beta-beta   T2 =       0.1361563536D-01 E2=     -0.4788791220D-01
 ANorm=    0.1054267139D+01
 E2 =    -0.4013331528D+00 EUMP2 =    -0.11431595442709D+03
 Leave Link  804 at Fri Sep 25 11:33:59 2020, MaxMem=   327680000 cpu:              21.3 elap:               2.8
 (Enter /applis/site/cecic/gaussian16/B.01/nehalem/g16/l913.exe)
 CIDS:  MDV=   327680000.
 Frozen-core window:  NFC=   2 NFV=   0.
 IFCWin=0 IBDFC=1 NFBD=     0     0 NFCmp=     0     0 NFFFC=     0     0
 Using DD3R+UMP44R for 1st iteration.
 Using DD4RQ for 2nd and later iterations.
 Keep R2 and R3 ints in memory in canonical form, NReq=95956782.
 FoFCou: FMM=F IPFlag=           0 FMFlag=           0 FMFlg1=           0
         NFxFlg=           0 DoJE=F BraDBF=F KetDBF=F FulRan=T
         wScrn=  0.000000 ICntrl=       600 IOpCl=  0 I1Cent=           0 NGrid=           0
         NMat0=    1 NMatS0=   9591 NMatT0=    0 NMatD0=    1 NMtDS0=    0 NMtDT0=    0
 Symmetry not used in FoFCou.
 Two-electron integral symmetry not used.
 CIDS: In Core Option IDoMem=           1.
 CCSD(T)
 =======
 Iterations=  50 Convergence= 0.100D-06
 Produce multiple copies of IABC intergrals
 Iteration Nr.   1
 **********************
 DD1Dir will call FoFMem   1 times, MxPair=        42
 NAB=    21 NAA=     0 NBB=     0.
 MP4(R+Q)=  0.87741931D-02
 Maximum subspace dimension=  5
 A-vector RMS=  3.3293407D-03 Max=  2.2200085D-02 conv= 1.00D-05.
 RLE energy=       -0.3967450736
 E3=       -0.44510432D-02        EUMP3=      -0.11432040547D+03
 E4(DQ)=   -0.12633091D-02        UMP4(DQ)=   -0.11432166878D+03
 E4(SDQ)=  -0.63734616D-02        UMP4(SDQ)=  -0.11432677893D+03
 VARIATIONAL ENERGIES WITH THE FIRST-ORDER WAVEFUNCTION:
 DE(Corr)= -0.39669226     E(Corr)=     -114.31131354    
 NORM(A)=   0.10550934D+01
 Iteration Nr.   2
 **********************
 DD1Dir will call FoFMem   1 times, MxPair=        42
 NAB=    21 NAA=     0 NBB=     0.
 A-vector RMS=  5.0120326D-04 Max=  7.6695110D-03 conv= 1.00D-05.
 RLE energy=       -0.4097780767
 DE(Corr)= -0.40938896     E(CORR)=     -114.32401024     Delta=-1.27D-02
 NORM(A)=   0.10605613D+01
 Iteration Nr.   3
 **********************
 DD1Dir will call FoFMem   1 times, MxPair=        42
 NAB=    21 NAA=     0 NBB=     0.
 A-vector RMS=  6.0729694D-04 Max=  5.3221297D-03 conv= 1.00D-05.
 RLE energy=       -0.4105447231
 DE(Corr)= -0.40940252     E(CORR)=     -114.32402380     Delta=-1.36D-05
 NORM(A)=   0.10621989D+01
 Iteration Nr.   4
 **********************
 DD1Dir will call FoFMem   1 times, MxPair=        42
 NAB=    21 NAA=     0 NBB=     0.
 A-vector RMS=  1.3082885D-04 Max=  1.0836764D-03 conv= 1.00D-05.
 RLE energy=       -0.4106510848
 DE(Corr)= -0.41055905     E(CORR)=     -114.32518032     Delta=-1.16D-03
 NORM(A)=   0.10626979D+01
 Iteration Nr.   5
 **********************
 DD1Dir will call FoFMem   1 times, MxPair=        42
 NAB=    21 NAA=     0 NBB=     0.
 A-vector RMS=  6.0250981D-05 Max=  5.7664112D-04 conv= 1.00D-05.
 RLE energy=       -0.4107215280
 DE(Corr)= -0.41069421     E(CORR)=     -114.32531549     Delta=-1.35D-04
 NORM(A)=   0.10628645D+01
 Iteration Nr.   6
 **********************
 DD1Dir will call FoFMem   1 times, MxPair=        42
 NAB=    21 NAA=     0 NBB=     0.
 A-vector RMS=  2.0586856D-05 Max=  1.7161484D-04 conv= 1.00D-05.
 RLE energy=       -0.4107104854
 DE(Corr)= -0.41070835     E(CORR)=     -114.32532962     Delta=-1.41D-05
 NORM(A)=   0.10628822D+01
 Iteration Nr.   7
 **********************
 DD1Dir will call FoFMem   1 times, MxPair=        42
 NAB=    21 NAA=     0 NBB=     0.
 A-vector RMS=  6.7143504D-06 Max=  3.6809803D-05 conv= 1.00D-05.
 RLE energy=       -0.4107018801
 DE(Corr)= -0.41070966     E(CORR)=     -114.32533094     Delta=-1.32D-06
 NORM(A)=   0.10628817D+01
 Iteration Nr.   8
 **********************
 DD1Dir will call FoFMem   1 times, MxPair=        42
 NAB=    21 NAA=     0 NBB=     0.
 A-vector RMS=  3.1898997D-06 Max=  2.3407551D-05 conv= 1.00D-05.
 RLE energy=       -0.4107084941
 DE(Corr)= -0.41070897     E(CORR)=     -114.32533025     Delta= 6.88D-07
 NORM(A)=   0.10628844D+01
 Iteration Nr.   9
 **********************
 DD1Dir will call FoFMem   1 times, MxPair=        42
 NAB=    21 NAA=     0 NBB=     0.
 A-vector RMS=  8.9570194D-07 Max=  6.4883120D-06 conv= 1.00D-05.
 RLE energy=       -0.4107079325
 DE(Corr)= -0.41070815     E(CORR)=     -114.32532942     Delta= 8.27D-07
 NORM(A)=   0.10628846D+01
 Iteration Nr.  10
 **********************
 DD1Dir will call FoFMem   1 times, MxPair=        42
 NAB=    21 NAA=     0 NBB=     0.
 A-vector RMS=  2.3042525D-07 Max=  2.4334255D-06 conv= 1.00D-05.
 RLE energy=       -0.4107086059
 DE(Corr)= -0.41070867     E(CORR)=     -114.32532994     Delta=-5.19D-07
 NORM(A)=   0.10628851D+01
 Iteration Nr.  11
 **********************
 DD1Dir will call FoFMem   1 times, MxPair=        42
 NAB=    21 NAA=     0 NBB=     0.
 A-vector RMS=  1.3223354D-07 Max=  1.0275126D-06 conv= 1.00D-05.
 RLE energy=       -0.4107088360
 DE(Corr)= -0.41070876     E(CORR)=     -114.32533003     Delta=-9.21D-08
 NORM(A)=   0.10628854D+01
 CI/CC converged in   11 iterations to DelEn=-9.21D-08 Conv= 1.00D-07 ErrA1= 1.32D-07 Conv= 1.00D-05
 Wavefunction amplitudes converged. E(Corr)=     -114.32533003    
 Largest amplitude= 6.33D-02
 T4(AAA)= -0.43325209D-03
 T4(AAB)= -0.86921035D-02
 T5(AAA)=  0.35691834D-04
 T5(AAB)=  0.48325820D-03
 Time for triples=      163.35 seconds.
 T4(CCSD)= -0.18250711D-01
 T5(CCSD)=  0.10379001D-02
 CCSD(T)= -0.11434254284D+03
 Discarding MO integrals.
 Leave Link  913 at Fri Sep 25 11:34:44 2020, MaxMem=   327680000 cpu:             344.4 elap:              44.8
 (Enter /applis/site/cecic/gaussian16/B.01/nehalem/g16/l601.exe)
 Copying SCF densities to generalized density rwf, IOpCl= 0 IROHF=0.

 **********************************************************************

            Population analysis using the SCF Density.

 **********************************************************************

 Orbital symmetries:
       Occupied  (A) (A) (A) (A) (A) (A) (A) (A)
       Virtual   (A) (A) (A) (A) (A) (A) (A) (A) (A) (A) (A) (A)
                 (A) (A) (A) (A) (A) (A) (A) (A) (A) (A) (A) (A)
                 (A) (A) (A) (A) (A) (A) (A) (A) (A) (A) (A) (A)
                 (A) (A) (A) (A) (A) (A) (A) (A) (A) (A) (A) (A)
                 (A) (A) (A) (A) (A) (A) (A) (A) (A) (A) (A) (A)
                 (A) (A) (A) (A) (A) (A) (A) (A) (A) (A) (A) (A)
                 (A) (A) (A) (A) (A) (A) (A) (A) (A) (A) (A) (A)
                 (A) (A) (A) (A) (A) (A) (A) (A) (A) (A) (A) (A)
                 (A) (A) (A) (A) (A) (A) (A) (A) (A) (A) (A) (A)
                 (A) (A) (A) (A) (A) (A) (A) (A) (A) (A) (A) (A)
                 (A) (A) (A) (A) (A) (A) (A) (A) (A) (A)
 The electronic state is 1-A.
 Alpha  occ. eigenvalues --  -20.57829 -11.34065  -1.41383  -0.86883  -0.69687
 Alpha  occ. eigenvalues --   -0.65537  -0.54191  -0.44205
 Alpha virt. eigenvalues --    0.02645   0.04184   0.06302   0.07641   0.13134
 Alpha virt. eigenvalues --    0.13319   0.13331   0.17419   0.19861   0.21138
 Alpha virt. eigenvalues --    0.21729   0.25446   0.25634   0.28139   0.32117
 Alpha virt. eigenvalues --    0.33809   0.33951   0.35904   0.38798   0.38953
 Alpha virt. eigenvalues --    0.39608   0.41977   0.48281   0.49991   0.56095
 Alpha virt. eigenvalues --    0.56870   0.66931   0.67663   0.72804   0.76338
 Alpha virt. eigenvalues --    0.81856   0.83381   0.84204   0.85702   0.87747
 Alpha virt. eigenvalues --    0.88296   0.92718   0.93449   0.93957   0.98134
 Alpha virt. eigenvalues --    1.00295   1.02129   1.02367   1.04149   1.06873
 Alpha virt. eigenvalues --    1.08295   1.09846   1.10276   1.25779   1.27031
 Alpha virt. eigenvalues --    1.30430   1.37306   1.38857   1.45929   1.47606
 Alpha virt. eigenvalues --    1.51383   1.57116   1.60143   1.62694   1.70638
 Alpha virt. eigenvalues --    1.73411   1.84184   1.96407   2.00587   2.03090
 Alpha virt. eigenvalues --    2.08767   2.18293   2.29044   2.32465   2.34435
 Alpha virt. eigenvalues --    2.34453   2.49231   2.49940   2.56101   2.61500
 Alpha virt. eigenvalues --    2.71827   2.78896   2.81044   2.92414   2.93474
 Alpha virt. eigenvalues --    3.06329   3.07109   3.14741   3.18772   3.41440
 Alpha virt. eigenvalues --    3.45121   3.52845   3.56723   3.63313   3.66080
 Alpha virt. eigenvalues --    3.69915   3.89796   3.95116   4.06520   4.12453
 Alpha virt. eigenvalues --    4.16810   4.17388   4.22598   4.25548   4.36571
 Alpha virt. eigenvalues --    4.59789   4.64846   4.68733   4.77917   5.03527
 Alpha virt. eigenvalues --    5.06303   5.11316   5.18146   5.24667   5.28420
 Alpha virt. eigenvalues --    5.32563   5.38438   5.88047   6.14374   6.23775
 Alpha virt. eigenvalues --    6.50316   6.59887   6.62055   6.92119   6.95951
 Alpha virt. eigenvalues --    7.10628   7.19425   7.20899   7.42557   7.52566
 Alpha virt. eigenvalues --    7.69547   7.73586   7.78440  15.20150  16.39692
          Condensed to atoms (all electrons):
               1          2          3          4
     1  C    5.342646   0.305651   0.305649   0.481969
     2  H    0.305651   0.253030   0.021313  -0.042010
     3  H    0.305649   0.021313   0.253029  -0.042012
     4  O    0.481969  -0.042010  -0.042012   8.090176
 Mulliken charges:
               1
     1  C   -0.435915
     2  H    0.462017
     3  H    0.462021
     4  O   -0.488123
 Sum of Mulliken charges =  -0.00000
 Mulliken charges with hydrogens summed into heavy atoms:
               1
     1  C    0.488123
     4  O   -0.488123
 Electronic spatial extent (au):  <R**2>=             60.0053
 Charge=             -0.0000 electrons
 Dipole moment (field-independent basis, Debye):
    X=              2.7956    Y=             -0.0000    Z=              0.0000  Tot=              2.7956
 Quadrupole moment (field-independent basis, Debye-Ang):
   XX=            -12.1237   YY=            -11.4166   ZZ=            -11.7334
   XY=             -0.0000   XZ=              0.0000   YZ=              0.0000
 Traceless Quadrupole moment (field-independent basis, Debye-Ang):
   XX=             -0.3658   YY=              0.3413   ZZ=              0.0245
   XY=             -0.0000   XZ=              0.0000   YZ=              0.0000
 Octapole moment (field-independent basis, Debye-Ang**2):
  XXX=             -0.0711  YYY=              0.0000  ZZZ=              0.0000  XYY=              0.8050
  XXY=             -0.0001  XXZ=              0.0000  XZZ=             -0.4183  YZZ=             -0.0000
  YYZ=              0.0000  XYZ=             -0.0000
 Hexadecapole moment (field-independent basis, Debye-Ang**3):
 XXXX=            -44.8068 YYYY=            -17.4018 ZZZZ=            -10.5025 XXXY=             -0.0001
 XXXZ=              0.0000 YYYX=             -0.0000 YYYZ=              0.0000 ZZZX=             -0.0000
 ZZZY=              0.0000 XXYY=             -9.9086 XXZZ=             -9.1811 YYZZ=             -5.0443
 XXYZ=             -0.0000 YYXZ=              0.0000 ZZXY=             -0.0000
 N-N= 3.149750272283D+01 E-N=-3.314930695449D+02  KE= 1.137444216148D+02
 Leave Link  601 at Fri Sep 25 11:34:44 2020, MaxMem=   327680000 cpu:               0.5 elap:               0.1
 (Enter /applis/site/cecic/gaussian16/B.01/nehalem/g16/l9999.exe)
 1\1\GINC-DAHU74\SP\RCCSD(T)-FC\Aug-CC-pVTZ\C1H2O1\TINACCIL\25-Sep-2020
 \0\\#P CCSD(T)/aug-cc-pvtz geom=allcheck guess=read\\Title\\0,1\C,0,-0
 .0225777945,0.0000007729,-0.0130395001\H,0,0.0129072317,-0.0000002698,
 1.0901157182\H,0,0.9505307,-0.0000002698,-0.5338763211\O,0,-1.05779866
 03,0.0000019786,-0.6107144665\\Version=ES64L-G16RevB.01\State=1-A\HF=-
 113.9146213\MP2=-114.3159544\MP3=-114.3204055\MP4D=-114.330443\MP4DQ=-
 114.3216688\MP4SDQ=-114.3267789\CCSD=-114.32533\CCSD(T)=-114.3425428\R
 MSD=4.377e-09\PG=C01 [X(C1H2O1)]\\@


 A MAN BEGINS CUTTING HIS WISDOM TEETH THE 1ST
 TIME HE BITES OFF MORE THAN HE CAN CHEW.
 Job cpu time:       0 days  0 hours  6 minutes 22.6 seconds.
 Elapsed time:       0 days  0 hours  0 minutes 50.7 seconds.
 File lengths (MBytes):  RWF=    671 Int=      0 D2E=      0 Chk=      3 Scr=      1
 Normal termination of Gaussian 16 at Fri Sep 25 11:34:44 2020.
