5
 energy: -9.513658204816 gnorm: 0.000350592666 xtb: 6.2.2 (9d81278992624c895f80dd42a50cac0aa55982e2)
C         0.66165731459567    0.02725326577887    0.11687630333732
C        -0.44994567487524    0.85375519537501   -0.11011116386958
C        -1.54012436753691   -0.03613112827232    0.10175457161773
N        -0.38994168282166   -0.77698691773094   -0.18086758654029
H         1.71835441064163   -0.06789041514887    0.07234887545483
