4
 energy: -8.114717792756 gnorm: 0.156637597025 xtb: 6.2.2 (9d81278992624c895f80dd42a50cac0aa55982e2)
C        -1.24188000000000   -0.03322000000000    0.14500800000000
C        -0.00073700000000    0.75432000000000   -0.22954800000000
C         1.20537100000000    0.02633300000000    0.33283300000000
C         0.03724600000000   -0.74743300000000   -0.24829400000000
4
 energy: -8.140791320287 gnorm: 0.070746764258 xtb: 6.2.2 (9d81278992624c895f80dd42a50cac0aa55982e2)
C        -1.21056146630044   -0.03135249862523    0.05885914734593
C        -0.00786832448778    0.76905032050183   -0.14131201647306
C         1.18750564438315    0.02700354684949    0.24290953092008
C         0.03092414640507   -0.76470136872609   -0.16045766179296
4
 energy: -8.144867465857 gnorm: 0.039049939848 xtb: 6.2.2 (9d81278992624c895f80dd42a50cac0aa55982e2)
C        -1.14386201320845   -0.02954422509110    0.04918083246544
C        -0.00922957031724    0.77819022538617   -0.12648410386514
C         1.12305539429228    0.02562023596332    0.22316605681061
C         0.03003618923342   -0.77426623625839   -0.14586378541090
4
 energy: -8.145847347854 gnorm: 0.003906699234 xtb: 6.2.2 (9d81278992624c895f80dd42a50cac0aa55982e2)
C        -1.16902758001349   -0.03000299898912    0.03493239707386
C        -0.01025305930749    0.78149776712999   -0.11419538941642
C         1.15009172908028    0.02643178843795    0.21292392357863
C         0.02918891024071   -0.77792655657882   -0.13366193123607
4
 energy: -8.145895609672 gnorm: 0.002000157974 xtb: 6.2.2 (9d81278992624c895f80dd42a50cac0aa55982e2)
C        -1.17004277663978   -0.02994619291899    0.02830852540944
C        -0.01079326487309    0.78310587808411   -0.10766644559838
C         1.15210126123398    0.02656219288891    0.20653215064445
C         0.02873478027889   -0.77972187805404   -0.12717523045551
4
 energy: -8.145908532669 gnorm: 0.001522659631 xtb: 6.2.2 (9d81278992624c895f80dd42a50cac0aa55982e2)
C        -1.17122781935754   -0.02991390093915    0.02331027296870
C        -0.01117666383130    0.78345727037025   -0.10278255734676
C         1.15403178569189    0.02667030048155    0.20177300508618
C         0.02837269749694   -0.78021366991265   -0.12230172070811
4
 energy: -8.145912510453 gnorm: 0.000882545243 xtb: 6.2.2 (9d81278992624c895f80dd42a50cac0aa55982e2)
C        -1.17269723569496   -0.02991031318758    0.01999708943754
C        -0.01140361200808    0.78277333415940   -0.09960916987860
C         1.15598746848691    0.02675723958041    0.19872271243727
C         0.02811337921613   -0.77962026055223   -0.11911163199621
