$hessian                                                                        
        0.4962691791   0.0105716191  -0.0695167021  -0.2138007394  -0.1540298933
        0.0480718716  -0.0552536811   0.0000657274  -0.0303847513  -0.2272147587
        0.1433925468   0.0518295818
        0.0105716191   0.1112967938  -0.0005929390  -0.1215893416  -0.0401829556
        0.0013897202  -0.0005611784  -0.0447201501  -0.0015389937   0.1115789009
       -0.0263936881   0.0007422125
       -0.0695167021  -0.0005929390   0.0180164050   0.0233109123   0.0148588025
       -0.0167459487   0.0192505146  -0.0002649793   0.0158482821   0.0269552752
       -0.0140008843  -0.0171187384
       -0.2138007394  -0.1215893416   0.0233109123   0.3854764117   0.0033054616
        0.0282842735  -0.2111220741   0.1115885512  -0.0533893740   0.0394464017
        0.0066953288   0.0017941882
       -0.1540298933  -0.0401829556   0.0148588025   0.0033054616   0.3453035079
       -0.0303765281   0.1414760727  -0.0273445776   0.0356817514   0.0092483590
       -0.2777759747  -0.0201640258
        0.0480718716   0.0013897202  -0.0167459487   0.0282842735  -0.0303765281
        0.0277231864  -0.0773769957   0.0162299624  -0.0322437740   0.0010208507
        0.0127568456   0.0212665363
       -0.0552536811  -0.0005611784   0.0192505146  -0.2111220741   0.1414760727
       -0.0773769957   0.4643752563   0.0071767658   0.1381776350  -0.1979995012
       -0.1480916601  -0.0800511539
        0.0000657274  -0.0447201501  -0.0002649793   0.1115885512  -0.0273445776
        0.0162299624   0.0071767658   0.1111830747   0.0042461338  -0.1188310444
       -0.0391183470  -0.0202111169
       -0.0303847513  -0.0015389937   0.0158482821  -0.0533893740   0.0356817514
       -0.0322437740   0.1381776350   0.0042461338   0.0500104049  -0.0544035097
       -0.0383888915  -0.0336149130
       -0.2272147587   0.1115789009   0.0269552752   0.0394464017   0.0092483590
        0.0010208507  -0.1979995012  -0.1188310444  -0.0544035097   0.3857678581
       -0.0019962154   0.0264273838
        0.1433925468  -0.0263936881  -0.0140008843   0.0066953288  -0.2777759747
        0.0127568456  -0.1480916601  -0.0391183470  -0.0383888915  -0.0019962154
        0.3432880098   0.0396329302
        0.0518295818   0.0007422125  -0.0171187384   0.0017941882  -0.0201640258
        0.0212665363  -0.0800511539  -0.0202111169  -0.0336149130   0.0264273838
        0.0396329302   0.0294671151
