[Molden Format]
[Title]
[Atoms] AU
C      1     6 -0.22160765609588E+01 -0.56510625678847E-01  0.37796853036193E-01
C      2     6 -0.21542613383528E-01  0.14792268662634E+01 -0.18823653962175E+00
C      3     6  0.21845010918258E+01  0.50553067372369E-01  0.37552375281219E+00
C      4     6  0.53118082509936E-01 -0.14732693079603E+01 -0.22508595595258E+00
[GTO]
           1 0
 s           4   1.0000000000000000     
   51.049363095579913      -0.16312063210127389     
   8.7911227406887544      -0.19911024581000730     
  0.70640422258929825       0.31882047753655751     
  0.26922813413411617       0.12706504184240380     
 p           4   1.0000000000000000     
   5.8263656140800002       0.73716451545209605     
   1.5106896018720002       0.68216371614850257     
  0.53256483288000001       0.35783053929253711     
  0.21202323690600003        5.3983030275847881E-002

           2 0
 s           4   1.0000000000000000     
   51.049363095579913      -0.16312063210127389     
   8.7911227406887544      -0.19911024581000730     
  0.70640422258929825       0.31882047753655751     
  0.26922813413411617       0.12706504184240380     
 p           4   1.0000000000000000     
   5.8263656140800002       0.73716451545209605     
   1.5106896018720002       0.68216371614850257     
  0.53256483288000001       0.35783053929253711     
  0.21202323690600003        5.3983030275847881E-002

           3 0
 s           4   1.0000000000000000     
   51.049363095579913      -0.16312063210127389     
   8.7911227406887544      -0.19911024581000730     
  0.70640422258929825       0.31882047753655751     
  0.26922813413411617       0.12706504184240380     
 p           4   1.0000000000000000     
   5.8263656140800002       0.73716451545209605     
   1.5106896018720002       0.68216371614850257     
  0.53256483288000001       0.35783053929253711     
  0.21202323690600003        5.3983030275847881E-002

           4 0
 s           4   1.0000000000000000     
   51.049363095579913      -0.16312063210127389     
   8.7911227406887544      -0.19911024581000730     
  0.70640422258929825       0.31882047753655751     
  0.26922813413411617       0.12706504184240380     
 p           4   1.0000000000000000     
   5.8263656140800002       0.73716451545209605     
   1.5106896018720002       0.68216371614850257     
  0.53256483288000001       0.35783053929253711     
  0.21202323690600003        5.3983030275847881E-002

[MO]
Sym=     1a
Ene=  -0.74720572257892048     
Spin= Alpha
Occup=     2.00000000
           1 -0.27769233194119958     
           2 -0.13413463060615582     
           3  -3.4838049253663223E-003
           4   7.3723525818161825E-003
           5 -0.34562552407742458     
           6  -2.2446703578849598E-003
           7  0.16037088796969573     
           8  -2.1593765453452530E-002
           9 -0.27769298583133806     
          10  0.13145126878448615     
          11   2.9777500926343732E-003
          12   2.7755049368349247E-002
          13 -0.34562637851302180     
          14   5.8488387092062964E-003
          15 -0.15969111676617809     
          16  -2.5588478067970707E-002
Sym=     2a
Ene=  -0.66608795199547555     
Spin= Alpha
Occup=     2.00000000
           1 -0.46027630170906741     
           2  -5.4007937711286376E-002
           3  -1.7062791326298526E-003
           4   2.7311403654953909E-002
           5  -3.4567703680346602E-007
           6  0.32149460281524406     
           7   7.8219383362354098E-003
           8   2.4673439442167225E-002
           9  0.46027657296428720     
          10  -4.9229407258509175E-002
          11  -8.0542009067866894E-004
          12  -3.5234429629991813E-002
          13  -3.3433009278116334E-007
          14  0.32149586067555308     
          15   7.8216689832292224E-003
          16   2.4673531685533198E-002
Sym=     3a
Ene=  -0.60584158369535235     
Spin= Alpha
Occup=     2.00000000
           1  -1.9943491656927250E-007
           2   7.6048978678520856E-003
           3 -0.30073998861655965     
           4  -3.7534237664120021E-003
           5 -0.50793333712711852     
           6   6.9451594665225084E-003
           7 -0.18101675749555152     
           8  -3.3113255092332934E-002
           9  -2.1658705714696750E-007
          10   7.6049236431704696E-003
          11 -0.30074064440415604     
          12  -3.7534268747282853E-003
          13  0.50793387057189243     
          14   2.2322218418474758E-003
          15 -0.18190749865874639     
          16   2.8583814329172050E-002
Sym=     4a
Ene=  -0.56034718993207311     
Spin= Alpha
Occup=     2.00000000
           1 -0.12058898556599092     
           2   2.2178925584414453E-002
           3   4.8641450456255618E-003
           4 -0.34479204166134431     
           5   9.1606160448804291E-002
           6   3.5562047225796527E-002
           7  -2.3304489676133824E-002
           8 -0.45598399549952157     
           9 -0.12058907684377761     
          10   3.0453581802858083E-002
          11   5.0654734594889157E-003
          12 -0.34415771490088748     
          13   9.1606531111618830E-002
          14   3.4051467508903754E-002
          15   3.6437512119525950E-002
          16 -0.45524009812894040     
Sym=     5a
Ene=  -0.53129724342803009     
Spin= Alpha
Occup=     2.00000000
           1   7.7255567374875760E-007
           2  -1.1114411178574765E-002
           3  0.43951672086571714     
           4   5.4855359082896472E-003
           5   4.6929669942952150E-007
           6 -0.40991179256167709     
           7  -9.9727198687480229E-003
           8  -3.1459102657165568E-002
           9  -8.5567532161722334E-007
          10   1.1113942015473213E-002
          11 -0.43951690208083494     
          12  -5.4855613639556208E-003
          13  -4.2077502014581606E-007
          14  0.40991148291367641     
          15   9.9731187078175541E-003
          16   3.1459095070473848E-002
Sym=     6a
Ene=  -0.49892315600664455     
Spin= Alpha
Occup=     2.00000000
           1  0.54775404445775933     
           2 -0.39904886975585430     
           3  -9.0398443654022553E-003
           4  -8.4219223688293168E-002
           5 -0.18100330647760873     
           6   6.6399983747057753E-003
           7  -2.8693671764152936E-002
           8  -7.7431981524603025E-002
           9  0.54775533330569603     
          10  0.40719211037032899     
          11   1.0575500907051843E-002
          12  -2.2343073516472564E-002
          13 -0.18100302676002741     
          14   5.1327522031059513E-003
          15   3.0914777737696093E-002
          16  -7.6688340923875414E-002
Sym=     7a
Ene=  -0.45972203156941832     
Spin= Alpha
Occup=     2.00000000
           1   7.4486705626576916E-002
           2  -8.1727986653975543E-002
           3  -2.0625685402686704E-003
           4  -2.7759531999921197E-004
           5  0.40432816082490031     
           6  -1.4315029656361989E-002
           7  0.56687782928018626     
           8   6.8144740407092858E-003
           9   7.4487295226508377E-002
          10   8.0818233896132838E-002
          11   1.8921177524211239E-003
          12   1.2197499323812545E-002
          13  0.40432695143005554     
          14   1.4354468873375022E-002
          15 -0.56687104870981742     
          16  -7.3360902272358178E-003
Sym=     8a
Ene=  -0.43227197608413093     
Spin= Alpha
Occup=     2.00000000
           1 -0.35320010804119883     
           2  0.52079382369779958     
           3   1.6198231959588451E-002
           4 -0.24264291617709152     
           5   1.4882781901778543E-007
           6 -0.21639505718186669     
           7  -5.2652515796086955E-003
           8  -1.6607605560576083E-002
           9  0.35319755991800472     
          10  0.47786333176996576     
          11   8.0985579152822954E-003
          12  0.31928635990518850     
          13   1.6007056472023154E-007
          14 -0.21639478418048314     
          15  -5.2642955636087990E-003
          16  -1.6607575040041601E-002
Sym=     9a
Ene=  -0.38952289980627020     
Spin= Alpha
Occup=     0.00000000
           1   5.1505356032766875E-002
           2 -0.25896007188185388     
           3   1.7828460845222766E-003
           4 -0.66753448522893188     
           5  -1.4060704231469846E-008
           6   6.4345368474112138E-002
           7   1.5655290065154121E-003
           8   4.9374746338885405E-003
           9  -5.1504661757798179E-002
          10 -0.35733947637826785     
          11  -1.6777108890323040E-002
          12  0.62023704490886578     
          13  -2.7053685214276152E-008
          14   6.4345321263071173E-002
          15   1.5654766340004803E-003
          16   4.9374790068484669E-003
Sym=    10a
Ene=  -0.37099519829479416     
Spin= Alpha
Occup=     0.00000000
           1  -3.4609730640026979E-008
           2   5.5777582180895711E-003
           3 -0.22057942650849802     
           4  -2.7539204779554439E-003
           5  0.16346737684726084     
           6   4.6659012507420612E-002
           7  0.19504902375745045     
           8 -0.66979728405907291     
           9  -2.3389490707902144E-008
          10   5.5781130405136671E-003
          11 -0.22057941881009796     
          12  -2.7539055728724878E-003
          13 -0.16346687743978205     
          14  -5.6033602397127992E-002
          15  0.17567473244618115     
          16  0.67442391925856349     
Sym=    11a
Ene=  -0.26684029764924433     
Spin= Alpha
Occup=     0.00000000
           1   9.1946395471665762E-009
           2   1.2999316860400149E-002
           3 -0.51407000433259498     
           4  -6.4145560748902529E-003
           5  0.17336600848409595     
           6  -3.9225983471334998E-002
           7  0.49708555290522816     
           8  0.35353721119185755     
           9   1.8570698267647794E-008
          10   1.2999377047285439E-002
          11 -0.51407029443893248     
          12  -6.4145639030100182E-003
          13 -0.17336534580288124     
          14   1.3833074307036994E-002
          15  0.50709540656149144     
          16 -0.34100590707257056     
Sym=    12a
Ene=  -0.24486436437688067     
Spin= Alpha
Occup=     0.00000000
           1   1.0937719715408680E-002
           2  -4.2101872916478052E-002
           3  -9.1547541275007593E-003
           4  0.64827218366486206     
           5   6.5705936564768488E-002
           6   3.9976095578895657E-002
           7  -3.7927361538357886E-002
           8 -0.50886376686756052     
           9   1.0937483632867298E-002
          10  -5.6861071299941945E-002
          11  -9.5138142050075654E-003
          12  0.64713777794448835     
          13   6.5706426787419683E-002
          14   3.7687294489508666E-002
          15   5.2577434673022658E-002
          16 -0.50773191723980371     
Sym=    13a
Ene=   0.11681565042351012     
Spin= Alpha
Occup=     0.00000000
           1  -4.5464887373980578E-007
           2   1.7635379611295791E-002
           3 -0.69741516375611190     
           4  -8.7041961252250031E-003
           5  -6.5081621725848570E-006
           6 -0.77149472148374632     
           7  -1.8763180598221796E-002
           8  -5.9209789775195164E-002
           9   4.4761939662991380E-007
          10  -1.7636304584110266E-002
          11  0.69742251926335241     
          12   8.7042332892320242E-003
          13   6.4994555952424184E-006
          14  0.77149274367676191     
          15   1.8776865638872760E-002
          16   5.9209836937463005E-002
Sym=    14a
Ene=   0.14358171043827303     
Spin= Alpha
Occup=     0.00000000
           1   3.3135174058758318E-007
           2  -1.0908769656498906E-002
           3  0.43140926912534000     
           4   5.3843158359877406E-003
           5 -0.71312056666015478     
           6  -1.1374956107854181E-002
           7  0.71275381585732522     
           8  -7.7641727966897375E-002
           9   3.2845141566511029E-007
          10  -1.0909253154869078E-002
          11  0.43139592923409381     
          12   5.3840880454854665E-003
          13  0.71311975384451609     
          14  -2.4609179989748226E-002
          15  0.71025834840456925     
          16   9.5401739015515685E-002
Sym=    15a
Ene=   0.30537821668342269     
Spin= Alpha
Occup=     0.00000000
           1  0.54429580561941049     
           2  0.73690505972307951     
           3   1.8800405012519221E-002
           4  -1.3331088042411522E-002
           5 -0.61704431193378029     
           6   2.8864243933859686E-003
           7  0.40385496509965252     
           8 -0.16579154395790185     
           9  0.54431568151572085     
          10 -0.72630643238371173     
          11  -1.6798686666650683E-002
          12 -0.12563188408842060     
          13 -0.61704594128207624     
          14   2.3186799465179504E-002
          15 -0.39893325930325868     
          16 -0.17581116227597071     
Sym=    16a
Ene=   0.33570652958910685     
Spin= Alpha
Occup=     0.00000000
           1 -0.66051308035898748     
           2 -0.59302069678571123     
           3  -1.6505146121280716E-002
           4  0.12098811602405948     
           5   9.5887423253039420E-006
           6 -0.76815416409693127     
           7  -1.8695074701413038E-002
           8  -5.8950272057517572E-002
           9  0.66049597224533363     
          10 -0.56770706380500224     
          11  -1.1734771616396501E-002
          12 -0.21006706070120509     
          13   9.5939798170258725E-006
          14 -0.76815633013346118     
          15  -1.8682605302092509E-002
          16  -5.8950260549097112E-002
