[Molden Format]
[Title]
[Atoms] AU
C      1     6  0.51088717414544E-03  0.54386427757719E-03  0.15640777609894E-02
C      2     6  0.22916490659092E+01 -0.65250550720524E+00 -0.51836615060389E-01
C      3     6 -0.23072919835600E+01  0.59395188429418E+00  0.47799369994988E-01
H      4     1 -0.41976698684958E+01  0.11795999566551E+01  0.70590137243288E-01
H      5     1  0.42128037887018E+01 -0.11215883083088E+01 -0.68118859674529E-01
[GTO]
           1 0
 s           4   1.0000000000000000     
   51.049363095579913      -0.16312063210127389     
   8.7911227406887544      -0.19911024581000730     
  0.70640422258929825       0.31882047753655751     
  0.26922813413411617       0.12706504184240380     
 p           4   1.0000000000000000     
   5.8263656140800002       0.73716451545209605     
   1.5106896018720002       0.68216371614850257     
  0.53256483288000001       0.35783053929253711     
  0.21202323690600003        5.3983030275847881E-002

           2 0
 s           4   1.0000000000000000     
   51.049363095579913      -0.16312063210127389     
   8.7911227406887544      -0.19911024581000730     
  0.70640422258929825       0.31882047753655751     
  0.26922813413411617       0.12706504184240380     
 p           4   1.0000000000000000     
   5.8263656140800002       0.73716451545209605     
   1.5106896018720002       0.68216371614850257     
  0.53256483288000001       0.35783053929253711     
  0.21202323690600003        5.3983030275847881E-002

           3 0
 s           4   1.0000000000000000     
   51.049363095579913      -0.16312063210127389     
   8.7911227406887544      -0.19911024581000730     
  0.70640422258929825       0.31882047753655751     
  0.26922813413411617       0.12706504184240380     
 p           4   1.0000000000000000     
   5.8263656140800002       0.73716451545209605     
   1.5106896018720002       0.68216371614850257     
  0.53256483288000001       0.35783053929253711     
  0.21202323690600003        5.3983030275847881E-002

           4 0
 s           3   1.0000000000000000     
   3.3702276975336001       0.27359110588908298     
  0.61389118221497996       0.26460540653860526     
  0.16614291148415999        8.2465947534082318E-002

           5 0
 s           3   1.0000000000000000     
   3.3702276975336001       0.27359110588908298     
  0.61389118221497996       0.26460540653860526     
  0.16614291148415999        8.2465947534082318E-002

[MO]
Sym=     1a
Ene=  -0.61725537177583523     
Spin= Alpha
Occup=     2.00000000
           1 -0.55249418658129557     
           2   7.0992872087571760E-004
           3   3.2431729080019799E-003
           4   4.0767283103529709E-004
           5 -0.32921310043108953     
           6  0.16420135050439963     
           7  -4.6540087875089370E-002
           8  -3.8765022761506254E-003
           9 -0.32878646311398957     
          10 -0.16520625651197979     
          11   4.2646707188502241E-002
          12   3.4551999376418226E-003
          13  -5.6466815029116081E-002
          14  -5.6655216541273312E-002
Sym=     2a
Ene=  -0.58282127392009730     
Spin= Alpha
Occup=     2.00000000
           1   3.6943516679432216E-004
           2 -0.36471151359015852     
           3   9.8978358483650747E-002
           4   7.6329410245141328E-003
           5 -0.44090033485007313     
           6   3.9396245555866342E-002
           7  -1.3907674489267583E-002
           8  -1.6620868424364976E-003
           9  0.44107789344788723     
          10   4.1562707871113831E-002
          11  -7.5665071113464851E-003
          12  -1.0372663768582974E-003
          13  0.15743082720823776     
          14 -0.15767284807075291     
Sym=     3a
Ene=  -0.52211230628008043     
Spin= Alpha
Occup=     2.00000000
           1 -0.19703444281621219     
           2   8.6571852244827097E-004
           3   4.9476205519887522E-003
           4   2.6238380627350167E-004
           5  0.28130840579466321     
           6  0.28511744971798625     
           7  -7.2628932912628869E-002
           8  -4.1636498426369933E-003
           9  0.28166683413847343     
          10 -0.28158034394366732     
          11   8.2738407999062402E-002
          12   4.5410627527468122E-003
          13  0.35128641292661728     
          14  0.35174148073932521     
Sym=     4a
Ene=  -0.48602639349217808     
Spin= Alpha
Occup=     2.00000000
           1   1.2756554183404451E-004
           2 -0.31199622269837241     
           3   8.1846788555755806E-002
           4   1.2201273466249477E-002
           5   3.9705236363772906E-002
           6  0.36834862850332717     
           7  -9.9334271686837464E-002
           8  -2.7360057080481836E-003
           9  -4.0154983932650379E-002
          10  0.36725857466964967     
          11 -0.10534279078667244     
          12  -2.5674363446383237E-003
          13 -0.34997534371204386     
          14  0.34921796182166354     
Sym=     5a
Ene=  -0.44913569338238291     
Spin= Alpha
Occup=     2.00000000
           1   1.2489091497514487E-002
           2  0.15682417981677901     
           3  0.57121480161234406     
           4  0.13486072675145094     
           5  -1.1171389481602815E-002
           6  0.11020448550015420     
           7  0.40403664536360584     
           8   9.5361438281304153E-002
           9  -1.2225297829116239E-002
          10  0.11535426985453104     
          11  0.40240501293776965     
          12   9.5209086746785215E-002
          13  -8.4681678539080840E-004
          14   7.3350458177547301E-004
Sym=     6a
Ene=  -0.44912188709450507     
Spin= Alpha
Occup=     2.00000000
           1  -1.5758327294506116E-003
           2  -1.9565286369592122E-002
           3 -0.13440477309319501     
           4  0.59224602761462952     
           5  -5.1027008701617514E-004
           6  -2.1669629899061543E-002
           7  -9.2930211567299567E-002
           8  0.41887133715754993     
           9   4.1521766526789461E-003
          10  -2.3028539231531371E-002
          11  -9.2431683705695239E-002
          12  0.41868602969661733     
          13   3.6078074616485902E-003
          14  -3.3549050737122794E-003
Sym=     7a
Ene=  -0.32429017863757004     
Spin= Alpha
Occup=     1.00000000
           1  -8.8987358441162468E-004
           2   6.6987893041254368E-003
           3  -1.7400418757638429E-003
           4  -2.5175749794416401E-004
           5  -1.5106532356037218E-002
           6  0.18181410264866604     
           7  0.68786268875666490     
           8   2.8693391970661387E-002
           9   1.9730307351035814E-002
          10 -0.19433807216530757     
          11 -0.68469576543571264     
          12  -2.8436620773519022E-002
          13  -7.2092499275981095E-003
          14   5.1456702063939633E-003
Sym=     8a
Ene=  -0.32421383410723204     
Spin= Alpha
Occup=     1.00000000
           1   2.0586822606976887E-003
           2   1.4118462932608323E-004
           3  -2.0061216832650459E-004
           4  -6.9291445020992087E-005
           5  -6.0478890345557635E-003
           6   4.0326784791338737E-003
           7  -3.0748182777664803E-002
           8  0.71162843210024196     
           9  -4.6641040954717812E-003
          10  -3.4508687914362145E-003
          11   3.0546226823543216E-002
          12 -0.71189253110474193     
          13   2.1149887650808237E-003
          14   2.6524731956206636E-003
Sym=     9a
Ene=  -0.10429979885872709     
Spin= Alpha
Occup=     0.00000000
           1  -2.8515048306796027E-004
           2  0.23029004489599436     
           3  0.84301991801617715     
           4   3.3054410993783007E-002
           5   2.5419903263021109E-002
           6 -0.15167758043979004     
           7 -0.59195432603107601     
           8  -2.2964018941525891E-002
           9   3.0736212700056921E-002
          10 -0.17341717307796611     
          11 -0.58528219450105012     
          12  -2.3161026219055015E-002
          13  -2.6345591922956643E-002
          14  -2.1353013523145049E-002
Sym=    10a
Ene=  -0.10402220573446101     
Spin= Alpha
Occup=     0.00000000
           1   1.1156825237143427E-003
           2   6.6621690286772168E-003
           3  -3.6086298736891002E-002
           4  0.87417795097576323     
           5   6.3375734307081419E-003
           6  -6.1503976217274522E-004
           7   2.4413474619985824E-002
           8 -0.61157785900200201     
           9  -5.8853350790126803E-003
          10  -1.2191525713423689E-003
          11   2.3987302292627726E-002
          12 -0.61143891495248293     
          13   5.4720283546466908E-003
          14  -5.9557628203412523E-003
Sym=    11a
Ene=    5.1405033042019911E-002
Spin= Alpha
Occup=     0.00000000
           1  0.64310419551919429     
           2   3.9812048721344709E-003
           3   1.7590083581046970E-002
           4  -4.9452055320685350E-005
           5 -0.75544180732168986     
           6  -5.2163871394915955E-002
           7  -1.8288642093659151E-002
           8  -7.6128032036957066E-003
           9 -0.75819512450757298     
          10   3.5773067511089454E-002
          11  -4.8969333431675574E-002
          12   4.0085012155189441E-003
          13  0.63498949175899311     
          14  0.63155371556566531     
Sym=    12a
Ene=   0.22240051025256238     
Spin= Alpha
Occup=     0.00000000
           1   2.7014493910805723E-003
           2  0.34824773099302692     
           3  -9.8243302227445789E-002
           4   1.7839025587946023E-004
           5 -0.70830380332596721     
           6 -0.41326641035535078     
           7   9.1593592516394692E-002
           8  -2.9139401788235439E-003
           9  0.70382679710334550     
          10 -0.40170220527453165     
          11  0.13920435489495769     
          12   3.9774982873609036E-004
          13 -0.78662482654799348     
          14  0.78899424751648750     
Sym=    13a
Ene=   0.72295162324832662     
Spin= Alpha
Occup=     0.00000000
           1   1.1049073434278507     
           2  -9.4281275635010927E-003
           3  -2.7268529330962982E-002
           4  -2.8122088145741387E-003
           5  -5.4999483098000075E-002
           6  0.90601022311957702     
           7 -0.23430874646309535     
           8  -1.4647875463014454E-002
           9  -5.8190379567876566E-002
          10 -0.89983559395669854     
          11  0.25930914611578793     
          12   1.5905088055092158E-002
          13 -0.60072554871698414     
          14 -0.60228734384915550     
Sym=    14a
Ene=    1.4504708808457782     
Spin= Alpha
Occup=     0.00000000
           1   1.5112255745955453E-003
           2   1.4466612577921083     
           3 -0.39151141664045103     
           4  -3.2584466532405904E-002
           5 -0.58767569632809247     
           6  0.93358182024305825     
           7 -0.26233549810289136     
           8  -1.8880226085509402E-002
           9  0.58778399801862669     
          10  0.93519456863612560     
          11 -0.24679373572168439     
          12  -1.6240416616285315E-002
          13  0.37615584589715728     
          14 -0.37811095118619636     
