$hessian                                                                        
        1.0574045145  -0.2790236449  -0.0215185565  -0.5165934635   0.1411894870
        0.0104134483  -0.5218620977   0.1373802757   0.0094491055  -0.0099525435
       -0.0021038675   0.0006693596  -0.0089964097   0.0025577496   0.0009866432
       -0.2790236449   0.1051335537   0.0058838201   0.1475023876  -0.0479003988
       -0.0034035969   0.1302817128  -0.0422110563  -0.0028979263   0.0013476538
       -0.0069322206   0.0002855701  -0.0001081093  -0.0080898780   0.0001321330
       -0.0215185565   0.0058838201   0.0296195794   0.0118773470  -0.0033450467
       -0.0073441298   0.0097808139  -0.0025893176  -0.0072831382  -0.0000146743
        0.0000421107  -0.0074901879  -0.0001249301   0.0000084334  -0.0075021234
       -0.5165934635   0.1475023876   0.0118773470   1.0458679476  -0.2784897117
       -0.0177764219  -0.1578885926   0.0398177439   0.0036707271  -0.0005379698
        0.0018159187  -0.0002934008  -0.3708479216   0.0893536615   0.0025217487
        0.1411894870  -0.0479003988  -0.0033450467  -0.2784897117   0.0797857166
        0.0053697092   0.0448941518  -0.0126221819  -0.0000530548   0.0010434615
        0.0028024799  -0.0007767282   0.0913626114  -0.0220656158  -0.0011948795
        0.0104134483  -0.0034035969  -0.0073441298  -0.0177764219   0.0053697092
        0.0063042697   0.0037996611  -0.0013445310  -0.0016930991   0.0000921424
        0.0003222430   0.0034449768   0.0034711701  -0.0009438243  -0.0007120175
       -0.5218620977   0.1302817128   0.0097808139  -0.1578885926   0.0448941518
        0.0037996611   1.0370734758  -0.2876181630  -0.0177199988  -0.3564475385
        0.1118887469   0.0041851535  -0.0008752469   0.0005535516  -0.0000456297
        0.1373802757  -0.0422110563  -0.0025893176   0.0398177439  -0.0126221819
       -0.0013445310  -0.2876181630   0.0863201857   0.0041467465   0.1092166148
       -0.0346598197  -0.0006631839   0.0012035286   0.0031728722   0.0004502860
        0.0094491055  -0.0028979263  -0.0072831382   0.0036707271  -0.0000530548
       -0.0016930991  -0.0177199988   0.0041467465   0.0051088658   0.0046626231
       -0.0008779014   0.0001557863  -0.0000624568  -0.0003178639   0.0037115853
       -0.0099525435   0.0013476538  -0.0000146743  -0.0005379698   0.0010434615
        0.0000921424  -0.3564475385   0.1092166148   0.0046626231   0.3672521193
       -0.1120008167  -0.0046889250  -0.0003140675   0.0003930866  -0.0000511662
       -0.0021038675  -0.0069322206   0.0000421107   0.0018159187   0.0028024799
        0.0003222430   0.1118887469  -0.0346598197  -0.0008779014  -0.1120008167
        0.0377025393   0.0009048423   0.0004000186   0.0010870211  -0.0003912945
        0.0006693596   0.0002855701  -0.0074901879  -0.0002934008  -0.0007767282
        0.0034449768   0.0041851535  -0.0006631839   0.0001557863  -0.0046889250
        0.0009048423   0.0028583628   0.0001278128   0.0002494997   0.0010310620
       -0.0089964097  -0.0001081093  -0.0001249301  -0.3708479216   0.0913626114
        0.0034711701  -0.0008752469   0.0012035286  -0.0000624568  -0.0003140675
        0.0004000186   0.0001278128   0.3810336457  -0.0928580494  -0.0034115959
        0.0025577496  -0.0080898780   0.0000084334   0.0893536615  -0.0220656158
       -0.0009438243   0.0005535516   0.0031728722  -0.0003178639   0.0003930866
        0.0010870211   0.0002494997  -0.0928580494   0.0258956006   0.0010037551
        0.0009866432   0.0001321330  -0.0075021234   0.0025217487  -0.0011948795
       -0.0007120175  -0.0000456297   0.0004502860   0.0037115853  -0.0000511662
       -0.0003912945   0.0010310620  -0.0034115959   0.0010037551   0.0034714936
