      -----------------------------------------------------------      
     |                   =====================                   |     
     |                           x T B                           |     
     |                   =====================                   |     
     |                         S. Grimme                         |     
     |          Mulliken Center for Theoretical Chemistry        |     
     |                    University of Bonn                     |     
      -----------------------------------------------------------      

   * xtb version 6.2.2 (9d81278992624c895f80dd42a50cac0aa55982e2) compiled by '@Darwin' on 04/03/2020

   xtb is free software: you can redistribute it and/or modify it under
   the terms of the GNU Lesser General Public License as published by
   the Free Software Foundation, either version 3 of the License, or
   (at your option) any later version.
   
   xtb is distributed in the hope that it will be useful,
   but WITHOUT ANY WARRANTY; without even the implied warranty of
   MERCHANTABILITY or FITNESS FOR A PARTICULAR PURPOSE.  See the
   GNU Lesser General Public License for more details.
   
   Cite this work as:
   * S. Grimme, C. Bannwarth, P. Shushkov, J. Chem. Theory Comput., 2017,
     13, 1989-2009. DOI: 10.1021/acs.jctc.7b00118
   * C. Bannwarth, S. Ehlert and S. Grimme., J. Chem. Theory Comput., 2019,
     15, 1652-1671. DOI: 10.1021/acs.jctc.8b01176
   * P. Pracht, E. Caldeweyher, S. Ehlert, S. Grimme, ChemRxiv, 2019, preprint.
     DOI: 10.26434/chemrxiv.8326202.v1
   
   for DFT-D4:
   * E. Caldeweyher, C. Bannwarth and S. Grimme, J. Chem. Phys., 2017,
     147, 034112. DOI: 10.1063/1.4993215
   * E. Caldeweyher, S. Ehlert, A. Hansen, H. Neugebauer, S. Spicher,
     C. Bannwarth and S. Grimme, J. Chem. Phys., 2019, 150, 154122.
     DOI: 10.1063/1.5090222
   
   for sTDA-xTB:
   * S. Grimme and C. Bannwarth, J. Chem. Phys., 2016, 145, 054103.
     DOI: 10.1063/1.4959605
   
   in the mass-spec context:
   * V. Asgeirsson, C. Bauer and S. Grimme, Chem. Sci., 2017, 8, 4879.
     DOI: 10.1039/c7sc00601b
   
   for metadynamics refer to:
   * S. Grimme, J. Chem. Theory Comput., 2019, 155, 2847-2862
     DOI: 10.1021/acs.jctc.9b00143
   
   with help from (in alphabetical order)
   C. Bannwarth, F. Bohle, G. Brandenburg, E. Caldeweyher, M. Checinski,
   S. Dohm, S. Ehlert, S. Ehrlich, F. März, H. Neugebauer, J. Pisarek,
   P. Pracht, P. Shushkov, and S. Spicher.
   
 * started run on 2020/05/12 at 11:44:26.063     

           -------------------------------------------------
          |                Calculation Setup                |
           -------------------------------------------------

          program call               : xtb --input H2C3_1_S_2.input H2C3_1_S_2.xyz --ohess --molden --namespace H2C3_1_S_2 output.out
          calculation namespace      : H2C3_1_S_2
          coordinate file            : H2C3_1_S_2.xyz
          number of atoms            :                     5
          number of electrons        :                    14
          charge                     :                     0
          spin                       :                   1.0
          first test random number   :      0.98345438543791

   ID    Z sym.   atoms
    1    6 C      1-3
    2    1 H      4, 5

           -------------------------------------------------
          |                 G F N 2 - x T B                 |
           -------------------------------------------------

        Reference                      10.1021/acs.jctc.8b01176
      * Hamiltonian:
        H0-scaling (s, p, d)           1.850000    2.230000    2.230000
        zeta-weighting                 0.500000
      * Dispersion:
        s8                             2.700000
        a1                             0.520000
        a2                             5.000000
        s9                             5.000000
      * Repulsion:
        kExp                           1.500000    1.000000
        rExp                           1.000000
      * Coulomb:
        alpha                          2.000000
        third order                    shell-resolved
        anisotropic                    true
        a3                             3.000000
        a5                             4.000000
        cn-shift                       1.200000
        cn-exp                         4.000000
        max-rad                        5.000000


          ...................................................
          :                      SETUP                      :
          :.................................................:
          :  # basis functions                  14          :
          :  # atomic orbitals                  14          :
          :  # shells                            8          :
          :  # electrons                        14          :
          :  max. iterations                   250          :
          :  Hamiltonian                  GFN2-xTB          :
          :  restarted?                      false          :
          :  GBSA solvation                  false          :
          :  PC potential                    false          :
          :  electronic temp.          300.0000000     K    :
          :  accuracy                    1.0000000          :
          :  -> integral cutoff          0.2500000E+02      :
          :  -> integral neglect         0.1000000E-07      :
          :  -> SCF convergence          0.1000000E-05 Eh   :
          :  -> wf. convergence          0.1000000E-03 e    :
          :  Broyden damping             0.4000000          :
          ...................................................

 iter      E             dE          RMSdq      gap      omega  full diag
   1     -7.0289809 -0.702898E+01  0.886E+00    0.43       0.0  T
   2     -6.2379310  0.791050E+00  0.104E+01    0.84       1.0  T
   3     -6.0506529  0.187278E+00  0.102E+01    1.65       1.0  T
   4     -6.9839447 -0.933292E+00  0.501E+00    0.17       1.0  T
   5     -7.0904067 -0.106462E+00  0.249E+00    0.17       1.0  T
   6     -7.0894138  0.992869E-03  0.175E+00    0.20       1.0  T
   7     -7.0890627  0.351061E-03  0.137E+00    0.20       1.0  T
   8     -7.0925543 -0.349152E-02  0.681E-01    0.16       1.0  T
   9     -7.0932229 -0.668682E-03  0.591E-01    0.14       1.0  T
  10     -7.0931947  0.282067E-04  0.357E-01    0.13       1.0  T
  11     -7.0933422 -0.147445E-03  0.197E-01    0.13       1.0  T
  12     -7.0933155  0.267274E-04  0.109E-01    0.14       1.0  T
  13     -7.0933658 -0.503228E-04  0.200E-02    0.14       2.2  T
  14     -7.0933660 -0.218123E-06  0.463E-03    0.14       9.7  T
  15     -7.0933661 -0.107104E-06  0.141E-03    0.14      31.8  T
  16     -7.0933661 -0.633062E-09  0.808E-04    0.14      55.4  T
  17     -7.0933661 -0.112100E-08  0.332E-04    0.14     134.5  T

   *** convergence criteria satisfied after 17 iterations ***

         #    Occupation            Energy/Eh            Energy/eV
      -------------------------------------------------------------
         1        2.0000           -0.6473837             -17.6162
         2        2.0000           -0.6036266             -16.4255
         3        2.0000           -0.5493792             -14.9494
         4        2.0000           -0.5083824             -13.8338
         5        2.0000           -0.4607413             -12.5374
         6        2.0000           -0.4362914             -11.8721
         7        1.0000           -0.3827426             -10.4150
         8        0.9361           -0.3567953              -9.7089 (HOMO)
         9        0.0639           -0.3516949              -9.5701 (LUMO)
        10                         -0.2801357              -7.6229
        11                          0.0901045               2.4519
        12                          0.1215101               3.3065
        13                          0.1392656               3.7896
        14                          0.1828201               4.9748
      -------------------------------------------------------------
                  HL-Gap            0.0051004 Eh            0.1388 eV
             Fermi-level           -0.3818810 Eh          -10.3915 eV

 transition dipole moment (au) for excitation:           7           8
     X       Y       Z   
   0.6757  -0.0186  -0.0784  total (au/Debye):    0.681   1.730
 dE (eV)             :    0.706
 oscillator strength :  0.11329E-01

 SCC (total)                   0 d,  0 h,  0 min,  0.005 sec
 SCC setup                      ...        0 min,  0.000 sec (  3.141%)
 Dispersion                     ...        0 min,  0.000 sec (  0.417%)
 integral evaluation            ...        0 min,  0.001 sec ( 25.040%)
 zeroth order Hamiltonian       ...        0 min,  0.000 sec (  0.533%)
 iterations                     ...        0 min,  0.002 sec ( 38.090%)
 molecular gradient             ...        0 min,  0.001 sec ( 17.759%)
 printout                       ...        0 min,  0.001 sec ( 14.655%)

         :::::::::::::::::::::::::::::::::::::::::::::::::::::
         ::                     SUMMARY                     ::
         :::::::::::::::::::::::::::::::::::::::::::::::::::::
         :: total energy              -7.034912041920 Eh    ::
         :: gradient norm              0.196092168016 Eh/a0 ::
         :: HOMO-LUMO gap              0.138788862991 eV    ::
         ::.................................................::
         :: SCC energy                -7.093366107583 Eh    ::
         :: -> isotropic ES           -0.017667072710 Eh    ::
         :: -> anisotropic ES          0.000208769187 Eh    ::
         :: -> anisotropic XC          0.010039212401 Eh    ::
         :: -> dispersion             -0.001611555401 Eh    ::
         :: repulsion energy           0.058454038997 Eh    ::
         :: add. restraining           0.000000000000 Eh    ::
         :::::::::::::::::::::::::::::::::::::::::::::::::::::

      ----------------------------------------------------------- 
     |                   =====================                   |
     |                        A N C O P T                        |
     |                   =====================                   |
     |               Approximate Normal Coordinate               |
     |                Rational Function Optimizer                |
      ----------------------------------------------------------- 

          ...................................................
          :                      SETUP                      :
          :.................................................:
          :   optimization level            normal          :
          :   max. optcycles                   200          :
          :   ANC micro-cycles                  20          :
          :   degrees of freedom                 9          :
          :.................................................:
          :   RF solver                   davidson          :
          :   write xtbopt.log                true          :
          :   linear?                        false          :
          :   energy convergence         0.5000000E-05 Eh   :
          :   grad. convergence          0.1000000E-02 Eh/α :
          :   maximium RF displ.         1.0000000          :
          :   Hlow (freq-cutoff)         0.1000000E-01      :
          :   Hmax (freq-cutoff)         5.0000000          :
          :   S6 in model hess.         20.0000000          :
          ...................................................

generating ANC from model Hessian ...
Using Lindh-Hessian (1995)
 Shifting diagonal of input Hessian by    0.0000000000000000     
 Lowest  eigenvalues of input Hessian
   -0.000000   -0.000000   -0.000000   -0.000000    0.000000    0.000000
    0.011088    0.040188    0.061878    0.072442    0.113890    0.562984
    0.795208    0.982831    1.044824
 Highest eigenvalues
    0.072442    0.113890    0.562984    0.795208    0.982831    1.044824


........................................................................
.............................. CYCLE    1 ..............................
........................................................................
   1     -7.0933661 -0.709337E+01  0.233E-05    0.14       0.0  T
   2     -7.0933661  0.123306E-09  0.151E-04    0.14     296.5  T
   3     -7.0933661 -0.118151E-09  0.370E-05    0.14    1209.0  T
     SCC iter.                  ...        0 min,  0.001 sec
     gradient                   ...        0 min,  0.001 sec
 * total energy  :    -7.0349120 Eh     change       -0.7258034E-09 Eh
   gradient norm :     0.1960920 Eh/α   predicted     0.0000000E+00 (-100.00%)
   displ. norm   :     0.3498618 α      lambda       -0.5793618E-01
   maximum displ.:     0.2519692 α      in ANC's #6, #4, #3, ...

........................................................................
.............................. CYCLE    2 ..............................
........................................................................
   1     -7.1649656 -0.716497E+01  0.203E+00    0.25       0.0  T
   2     -7.1436718  0.212938E-01  0.233E+00    0.44       1.0  T
   3     -7.1261195  0.175523E-01  0.246E+00    0.17       1.0  T
   4     -7.1577592 -0.316397E-01  0.158E+00    0.38       1.0  T
   5     -7.1689098 -0.111506E-01  0.473E-01    0.26       1.0  T
   6     -7.1684737  0.436091E-03  0.477E-01    0.27       1.0  T
   7     -7.1688988 -0.425156E-03  0.175E-01    0.25       1.0  T
   8     -7.1690077 -0.108891E-03  0.598E-02    0.24       1.0  T
   9     -7.1690162 -0.843528E-05  0.811E-03    0.24       5.5  T
  10     -7.1690163 -0.154414E-06  0.372E-03    0.24      12.0  T
  11     -7.1690164 -0.556932E-07  0.830E-04    0.24      53.9  T
  12     -7.1690164 -0.105102E-08  0.528E-05    0.24     846.5  T
     SCC iter.                  ...        0 min,  0.001 sec
     gradient                   ...        0 min,  0.001 sec
 * total energy  :    -7.0800807 Eh     change       -0.4516867E-01 Eh
   gradient norm :     0.1094093 Eh/α   predicted    -0.3251388E-01 ( -28.02%)
   displ. norm   :     0.3771576 α      lambda       -0.3714005E-01
   maximum displ.:     0.3023391 α      in ANC's #6, #3, #8, ...

........................................................................
.............................. CYCLE    3 ..............................
........................................................................
   1     -7.2219953 -0.722200E+01  0.228E+00    0.69       0.0  T
   2     -7.0867661  0.135229E+00  0.426E+00    1.25       1.0  T
   3     -7.2397615 -0.152995E+00  0.111E+00    0.64       1.0  T
   4     -7.2416632 -0.190170E-02  0.689E-01    0.73       1.0  T
   5     -7.2426004 -0.937224E-03  0.128E-01    0.69       1.0  T
   6     -7.2426039 -0.347152E-05  0.403E-02    0.70       1.1  T
   7     -7.2426044 -0.457842E-06  0.150E-02    0.70       3.0  T
   8     -7.2426052 -0.863268E-06  0.336E-03    0.70      13.3  T
   9     -7.2426052 -0.120807E-08  0.571E-04    0.70      78.3  T
  10     -7.2426052  0.416546E-09  0.301E-04    0.70     148.7  T
     SCC iter.                  ...        0 min,  0.001 sec
     gradient                   ...        0 min,  0.001 sec
 * total energy  :    -7.0971263 Eh     change       -0.1704554E-01 Eh
   gradient norm :     0.0702317 Eh/α   predicted    -0.2121157E-01 (  24.44%)
   displ. norm   :     0.5078584 α      lambda       -0.2038660E-01
   maximum displ.:     0.4517975 α      in ANC's #3, #2, #4, ...

........................................................................
.............................. CYCLE    4 ..............................
........................................................................
   1     -7.2041385 -0.720414E+01  0.177E+00    0.85       0.0  T
   2     -7.2008127  0.332584E-02  0.130E+00    0.94       1.0  T
   3     -7.1347646  0.660481E-01  0.288E+00    0.79       1.0  T
   4     -7.2031228 -0.683581E-01  0.558E-01    0.91       1.0  T
   5     -7.2048821 -0.175939E-02  0.142E-01    0.90       1.0  T
   6     -7.2048791  0.300261E-05  0.127E-01    0.90       1.0  T
   7     -7.2049523 -0.731109E-04  0.302E-02    0.89       1.5  T
   8     -7.2049566 -0.436052E-05  0.674E-03    0.89       6.6  T
   9     -7.2049568 -0.197055E-06  0.106E-03    0.89      42.0  T
  10     -7.2049568 -0.408477E-08  0.305E-04    0.89     146.9  T
  11     -7.2049568 -0.423393E-09  0.307E-05    0.89    1457.0  T
     SCC iter.                  ...        0 min,  0.001 sec
     gradient                   ...        0 min,  0.001 sec
 * total energy  :    -7.0991897 Eh     change       -0.2063413E-02 Eh
   gradient norm :     0.0732685 Eh/α   predicted    -0.1282234E-01 ( 521.41%)
   displ. norm   :     0.2344018 α      lambda       -0.1134293E-01
   maximum displ.:     0.1480441 α      in ANC's #2, #4, #3, ...

........................................................................
.............................. CYCLE    5 ..............................
........................................................................
   1     -7.2311570 -0.723116E+01  0.749E-01    1.02       0.0  T
   2     -7.2280319  0.312512E-02  0.768E-01    1.07       1.0  T
   3     -7.2281081 -0.762053E-04  0.731E-01    0.96       1.0  T
   4     -7.2315892 -0.348107E-02  0.188E-01    1.02       1.0  T
   5     -7.2317455 -0.156352E-03  0.326E-02    1.01       1.4  T
   6     -7.2317467 -0.118743E-05  0.953E-03    1.01       4.7  T
   7     -7.2317467  0.287326E-07  0.500E-03    1.01       8.9  T
   8     -7.2317467 -0.687793E-07  0.135E-03    1.01      33.1  T
   9     -7.2317467 -0.393973E-08  0.260E-04    1.01     172.0  T
  10     -7.2317467 -0.233278E-09  0.589E-05    1.01     759.8  T
     SCC iter.                  ...        0 min,  0.001 sec
     gradient                   ...        0 min,  0.001 sec
 * total energy  :    -7.1049495 Eh     change       -0.5759789E-02 Eh
   gradient norm :     0.0188654 Eh/α   predicted    -0.5983079E-02 (   3.88%)
   displ. norm   :     0.1651065 α      lambda       -0.1676248E-02
   maximum displ.:     0.1134226 α      in ANC's #1, #5, #3, ...

........................................................................
.............................. CYCLE    6 ..............................
........................................................................
   1     -7.2396413 -0.723964E+01  0.465E-01    1.16       0.0  T
   2     -7.2371729  0.246835E-02  0.622E-01    1.21       1.0  T
   3     -7.2395103 -0.233743E-02  0.321E-01    1.15       1.0  T
   4     -7.2400133 -0.502918E-03  0.111E-01    1.17       1.0  T
   5     -7.2400620 -0.487234E-04  0.243E-02    1.17       1.8  T
   6     -7.2400648 -0.283427E-05  0.709E-03    1.17       6.3  T
   7     -7.2400650 -0.180808E-06  0.179E-03    1.17      25.0  T
   8     -7.2400650 -0.101569E-07  0.226E-04    1.17     198.2  T
   9     -7.2400650 -0.798455E-10  0.302E-05    1.17    1482.3  T
     SCC iter.                  ...        0 min,  0.001 sec
     gradient                   ...        0 min,  0.001 sec
 * total energy  :    -7.1061629 Eh     change       -0.1213463E-02 Eh
   gradient norm :     0.0111325 Eh/α   predicted    -0.8609735E-03 ( -29.05%)
   displ. norm   :     0.4118248 α      lambda       -0.3258372E-02
   maximum displ.:     0.2647444 α      in ANC's #3, #2, #5, ...

........................................................................
.............................. CYCLE    7 ..............................
........................................................................
   1     -7.2405324 -0.724053E+01  0.121E+00    1.92       0.0  T
   2     -7.2283026  0.122298E-01  0.142E+00    2.06       1.0  T
   3     -7.2412852 -0.129825E-01  0.746E-01    1.88       1.0  T
   4     -7.2437909 -0.250576E-02  0.238E-01    1.95       1.0  T
   5     -7.2439723 -0.181406E-03  0.414E-02    1.93       1.1  T
   6     -7.2439756 -0.323699E-05  0.107E-02    1.93       4.2  T
   7     -7.2439757 -0.172308E-06  0.306E-03    1.93      14.6  T
   8     -7.2439757 -0.896311E-09  0.453E-04    1.93      98.6  T
   9     -7.2439757 -0.985283E-10  0.937E-05    1.93     477.0  T
     SCC iter.                  ...        0 min,  0.001 sec
     gradient                   ...        0 min,  0.001 sec
 * total energy  :    -7.1083679 Eh     change       -0.2205030E-02 Eh
   gradient norm :     0.0118201 Eh/α   predicted    -0.1905495E-02 ( -13.58%)
   displ. norm   :     0.4352456 α      lambda       -0.2209418E-02
   maximum displ.:     0.2744820 α      in ANC's #3, #5, #4, ...

........................................................................
.............................. CYCLE    8 ..............................
........................................................................
   1     -7.2372138 -0.723721E+01  0.176E+00    3.40       0.0  T
   2     -7.2116263  0.255876E-01  0.209E+00    3.52       1.0  T
   3     -7.2434985 -0.318722E-01  0.900E-01    3.35       1.0  T
   4     -7.2466345 -0.313605E-02  0.327E-01    3.41       1.0  T
   5     -7.2469475 -0.313007E-03  0.612E-02    3.39       1.0  T
   6     -7.2469498 -0.231515E-05  0.168E-02    3.39       2.7  T
   7     -7.2469496  0.186539E-06  0.730E-03    3.39       6.1  T
   8     -7.2469499 -0.255389E-06  0.133E-03    3.39      33.7  T
   9     -7.2469499 -0.121272E-08  0.404E-04    3.39     110.8  T
  10     -7.2469499 -0.695977E-10  0.112E-04    3.39     397.9  T
     SCC iter.                  ...        0 min,  0.001 sec
     gradient                   ...        0 min,  0.001 sec
 * total energy  :    -7.1106808 Eh     change       -0.2312838E-02 Eh
   gradient norm :     0.0240651 Eh/α   predicted    -0.1313980E-02 ( -43.19%)
   displ. norm   :     0.5407728 α      lambda       -0.4276487E-02
   maximum displ.:     0.2756759 α      in ANC's #3, #2, #5, ...

........................................................................
.............................. CYCLE    9 ..............................
........................................................................
   1     -7.2464116 -0.724641E+01  0.233E+00    4.78       0.0  T
   2     -7.2121226  0.342890E-01  0.243E+00    4.40       1.0  T
   3     -7.2546988 -0.425762E-01  0.129E+00    4.65       1.0  T
   4     -7.2612433 -0.654453E-02  0.469E-01    4.69       1.0  T
   5     -7.2619665 -0.723226E-03  0.125E-01    4.62       1.0  T
   6     -7.2619984 -0.318576E-04  0.351E-02    4.62       1.3  T
   7     -7.2619972  0.116128E-05  0.161E-02    4.62       2.8  T
   8     -7.2619988 -0.154770E-05  0.371E-03    4.62      12.1  T
   9     -7.2619988 -0.234979E-07  0.659E-04    4.62      67.9  T
  10     -7.2619988 -0.907905E-10  0.138E-04    4.62     323.0  T
     SCC iter.                  ...        0 min,  0.001 sec
     gradient                   ...        0 min,  0.001 sec
 * total energy  :    -7.1177228 Eh     change       -0.7042054E-02 Eh
   gradient norm :     0.0606812 Eh/α   predicted    -0.2763543E-02 ( -60.76%)
   displ. norm   :     0.6713247 α      lambda       -0.1971709E-01
   maximum displ.:     0.4537967 α      in ANC's #5, #3, #2, ...

........................................................................
.............................. CYCLE   10 ..............................
........................................................................
   1     -7.3381529 -0.733815E+01  0.310E+00    4.53       0.0  T
   2     -7.3384178 -0.264838E-03  0.194E+00    4.57       1.0  T
   3     -7.3303795  0.803825E-02  0.105E+00    4.57       1.0  T
   4     -7.3385985 -0.821903E-02  0.218E-01    4.66       1.0  T
   5     -7.3386344 -0.358791E-04  0.158E-01    4.59       1.0  T
   6     -7.3387737 -0.139254E-03  0.564E-02    4.62       1.0  T
   7     -7.3387946 -0.209575E-04  0.131E-02    4.63       3.4  T
   8     -7.3387956 -0.937668E-06  0.277E-03    4.63      16.2  T
   9     -7.3387956 -0.409799E-07  0.113E-03    4.63      39.5  T
  10     -7.3387956 -0.960828E-08  0.171E-04    4.63     262.1  T
  11     -7.3387956 -0.200651E-09  0.218E-05    4.63    2054.8  T
     SCC iter.                  ...        0 min,  0.001 sec
     gradient                   ...        0 min,  0.001 sec
 * total energy  :    -7.1214119 Eh     change       -0.3689046E-02 Eh
   gradient norm :     0.3126814 Eh/α   predicted    -0.1430156E-01 ( 287.68%)
   displ. norm   :     0.4370539 α      lambda       -0.7917539E-01
   maximum displ.:     0.2674205 α      in ANC's #5, #2, #4, ...

........................................................................
.............................. CYCLE   11 ..............................
........................................................................
   1     -7.3797067 -0.737971E+01  0.114E+00    4.67       0.0  T
   2     -7.3767136  0.299304E-02  0.852E-01    4.70       1.0  T
   3     -7.3751872  0.152642E-02  0.965E-01    4.62       1.0  T
   4     -7.3808948 -0.570757E-02  0.122E-01    4.69       1.0  T
   5     -7.3809181 -0.233032E-04  0.563E-02    4.66       1.0  T
   6     -7.3809265 -0.843881E-05  0.933E-03    4.67       4.8  T
   7     -7.3809267 -0.128613E-06  0.534E-03    4.67       8.4  T
   8     -7.3809267 -0.881566E-07  0.691E-04    4.67      64.8  T
   9     -7.3809267 -0.219967E-09  0.694E-05    4.67     644.3  T
     SCC iter.                  ...        0 min,  0.001 sec
     gradient                   ...        0 min,  0.001 sec
 * total energy  :    -7.1682443 Eh     change       -0.4683241E-01 Eh
   gradient norm :     0.1354541 Eh/α   predicted    -0.4714959E-01 (   0.68%)
   displ. norm   :     0.8006229 α      lambda       -0.6305794E-01
   maximum displ.:     0.6106622 α      in ANC's #2, #1, #3, ...

........................................................................
.............................. CYCLE   12 ..............................
........................................................................
   1     -7.3732970 -0.737330E+01  0.140E+00    4.77       0.0  T
   2     -7.3740028 -0.705801E-03  0.819E-01    4.81       1.0  T
   3     -7.3708305  0.317236E-02  0.654E-01    4.79       1.0  T
   4     -7.3738844 -0.305388E-02  0.266E-01    4.83       1.0  T
   5     -7.3742669 -0.382515E-03  0.340E-02    4.81       1.3  T
   6     -7.3742702 -0.335130E-05  0.148E-02    4.81       3.0  T
   7     -7.3742703 -0.705048E-07  0.177E-03    4.81      25.3  T
   8     -7.3742703 -0.544687E-08  0.651E-04    4.81      68.7  T
   9     -7.3742703 -0.837106E-09  0.122E-04    4.81     366.8  T
     SCC iter.                  ...        0 min,  0.001 sec
     gradient                   ...        0 min,  0.001 sec
 * total energy  :    -7.1761353 Eh     change       -0.7890996E-02 Eh
   gradient norm :     0.1887766 Eh/α   predicted    -0.5173896E-01 ( 555.67%)
   displ. norm   :     0.4005327 α      lambda       -0.4254027E-01
   maximum displ.:     0.3625924 α      in ANC's #5, #1, #3, ...

........................................................................
.............................. CYCLE   13 ..............................
........................................................................
   1     -7.3741666 -0.737417E+01  0.904E-01    4.52       0.0  T
   2     -7.3736606  0.506018E-03  0.610E-01    4.58       1.0  T
   3     -7.3698568  0.380378E-02  0.819E-01    4.48       1.0  T
   4     -7.3744103 -0.455351E-02  0.127E-01    4.52       1.0  T
   5     -7.3744806 -0.702457E-04  0.340E-02    4.54       1.3  T
   6     -7.3744834 -0.277640E-05  0.809E-03    4.54       5.5  T
   7     -7.3744834 -0.937628E-08  0.308E-03    4.54      14.5  T
   8     -7.3744834 -0.530579E-07  0.555E-04    4.54      80.6  T
   9     -7.3744834 -0.166898E-09  0.215E-05    4.54    2082.5  T
     SCC iter.                  ...        0 min,  0.001 sec
     gradient                   ...        0 min,  0.001 sec
 * total energy  :    -7.1930168 Eh     change       -0.1688155E-01 Eh
   gradient norm :     0.1046783 Eh/α   predicted    -0.2468243E-01 (  46.21%)
   displ. norm   :     0.6619646 α      lambda       -0.2768819E-01
   maximum displ.:     0.4534386 α      in ANC's #5, #1, #2, ...

........................................................................
.............................. CYCLE   14 ..............................
........................................................................
   1     -7.3305259 -0.733053E+01  0.102E+00    4.26       0.0  T
   2     -7.3283599  0.216598E-02  0.743E-01    4.26       1.0  T
   3     -7.3265741  0.178583E-02  0.909E-01    4.34       1.0  T
   4     -7.3309124 -0.433828E-02  0.266E-01    4.21       1.0  T
   5     -7.3314110 -0.498635E-03  0.434E-02    4.28       1.0  T
   6     -7.3314125 -0.153077E-05  0.136E-02    4.28       3.3  T
   7     -7.3314136 -0.105934E-05  0.280E-03    4.28      16.0  T
   8     -7.3314136 -0.127590E-07  0.722E-04    4.28      61.9  T
   9     -7.3314136 -0.178683E-09  0.158E-04    4.28     283.7  T
     SCC iter.                  ...        0 min,  0.001 sec
     gradient                   ...        0 min,  0.001 sec
 * total energy  :    -7.1806541 Eh     change        0.1236278E-01 Eh
   gradient norm :     0.1242287 Eh/α   predicted    -0.1991055E-01 (-261.05%)
   displ. norm   :     0.3647875 α      lambda       -0.3253971E-01
   maximum displ.:     0.2331128 α      in ANC's #5, #2, #1, ...

........................................................................
.............................. CYCLE   15 ..............................
........................................................................
   1     -7.3839367 -0.738394E+01  0.792E-01    4.79       0.0  T
   2     -7.3836255  0.311288E-03  0.512E-01    4.74       1.0  T
   3     -7.3823753  0.125010E-02  0.588E-01    4.74       1.0  T
   4     -7.3839509 -0.157553E-02  0.221E-01    4.80       1.0  T
   5     -7.3843211 -0.370178E-03  0.193E-02    4.76       2.3  T
   6     -7.3843212 -0.100193E-06  0.537E-03    4.76       8.3  T
   7     -7.3843212 -0.483260E-07  0.148E-03    4.76      30.1  T
   8     -7.3843212 -0.270781E-08  0.338E-04    4.76     132.5  T
   9     -7.3843212 -0.226673E-09  0.557E-05    4.76     802.5  T
     SCC iter.                  ...        0 min,  0.001 sec
     gradient                   ...        0 min,  0.001 sec
 * total energy  :    -7.2018728 Eh     change       -0.2121878E-01 Eh
   gradient norm :     0.0422858 Eh/α   predicted    -0.1843489E-01 ( -13.12%)
   displ. norm   :     0.2312346 α      lambda       -0.6342394E-02
   maximum displ.:     0.1618250 α      in ANC's #5, #2, #4, ...

........................................................................
.............................. CYCLE   16 ..............................
........................................................................
   1     -7.3971029 -0.739710E+01  0.483E-01    4.93       0.0  T
   2     -7.3968852  0.217640E-03  0.323E-01    4.91       1.0  T
   3     -7.3962538  0.631394E-03  0.394E-01    4.91       1.0  T
   4     -7.3971876 -0.933809E-03  0.740E-02    4.93       1.0  T
   5     -7.3972193 -0.316600E-04  0.771E-03    4.92       5.8  T
   6     -7.3972193 -0.248970E-08  0.202E-03    4.92      22.1  T
   7     -7.3972193 -0.623942E-08  0.409E-04    4.92     109.3  T
   8     -7.3972193 -0.143737E-09  0.892E-05    4.92     501.6  T
     SCC iter.                  ...        0 min,  0.000 sec
     gradient                   ...        0 min,  0.001 sec
 * total energy  :    -7.2054518 Eh     change       -0.3578907E-02 Eh
   gradient norm :     0.0510433 Eh/α   predicted    -0.3340760E-02 (  -6.65%)
   displ. norm   :     0.1571324 α      lambda       -0.3674432E-02
   maximum displ.:     0.1057080 α      in ANC's #4, #1, #5, ...

........................................................................
.............................. CYCLE   17 ..............................
........................................................................
   1     -7.4027215 -0.740272E+01  0.408E-01    5.05       0.0  T
   2     -7.4027285 -0.694186E-05  0.246E-01    5.04       1.0  T
   3     -7.4026102  0.118260E-03  0.129E-01    5.06       1.0  T
   4     -7.4027167 -0.106490E-03  0.514E-02    5.04       1.0  T
   5     -7.4027354 -0.187087E-04  0.100E-02    5.04       4.5  T
   6     -7.4027356 -0.192976E-06  0.300E-03    5.04      14.9  T
   7     -7.4027356 -0.556797E-08  0.390E-04    5.04     114.5  T
   8     -7.4027356 -0.353766E-09  0.114E-04    5.04     391.1  T
     SCC iter.                  ...        0 min,  0.000 sec
     gradient                   ...        0 min,  0.001 sec
 * total energy  :    -7.2081089 Eh     change       -0.2657103E-02 Eh
   gradient norm :     0.0367717 Eh/α   predicted    -0.1882579E-02 ( -29.15%)
   displ. norm   :     0.2370089 α      lambda       -0.4415165E-02
   maximum displ.:     0.1749250 α      in ANC's #4, #3, #1, ...

........................................................................
.............................. CYCLE   18 ..............................
........................................................................
   1     -7.3971503 -0.739715E+01  0.577E-01    5.10       0.0  T
   2     -7.3971604 -0.100757E-04  0.354E-01    5.09       1.0  T
   3     -7.3968057  0.354767E-03  0.220E-01    5.10       1.0  T
   4     -7.3971509 -0.345211E-03  0.618E-02    5.10       1.0  T
   5     -7.3971771 -0.261880E-04  0.162E-02    5.09       2.8  T
   6     -7.3971777 -0.644948E-06  0.354E-03    5.09      12.6  T
   7     -7.3971777 -0.174195E-08  0.658E-04    5.09      68.0  T
   8     -7.3971777  0.239365E-09  0.340E-04    5.09     131.4  T
     SCC iter.                  ...        0 min,  0.000 sec
     gradient                   ...        0 min,  0.001 sec
 * total energy  :    -7.2106129 Eh     change       -0.2504059E-02 Eh
   gradient norm :     0.0187147 Eh/α   predicted    -0.2331587E-02 (  -6.89%)
   displ. norm   :     0.1176470 α      lambda       -0.8882197E-03
   maximum displ.:     0.0808021 α      in ANC's #4, #1, #5, ...

........................................................................
.............................. CYCLE   19 ..............................
........................................................................
   1     -7.4026376 -0.740264E+01  0.302E-01    5.24       0.0  T
   2     -7.4026314  0.618731E-05  0.188E-01    5.24       1.0  T
   3     -7.4023662  0.265160E-03  0.191E-01    5.24       1.0  T
   4     -7.4026391 -0.272883E-03  0.331E-02    5.24       1.4  T
   5     -7.4026465 -0.742250E-05  0.504E-03    5.24       8.9  T
   6     -7.4026465 -0.135487E-07  0.125E-03    5.24      35.8  T
   7     -7.4026465 -0.604456E-09  0.322E-04    5.24     139.0  T
   8     -7.4026465 -0.366773E-10  0.108E-04    5.24     413.4  T
     SCC iter.                  ...        0 min,  0.000 sec
     gradient                   ...        0 min,  0.001 sec
 * total energy  :    -7.2112830 Eh     change       -0.6701013E-03 Eh
   gradient norm :     0.0133424 Eh/α   predicted    -0.4502540E-03 ( -32.81%)
   displ. norm   :     0.1473452 α      lambda       -0.8677399E-03
   maximum displ.:     0.0891353 α      in ANC's #4, #1, #5, ...

........................................................................
.............................. CYCLE   20 ..............................
........................................................................
   1     -7.4072987 -0.740730E+01  0.336E-01    5.44       0.0  T
   2     -7.4072663  0.323845E-04  0.217E-01    5.43       1.0  T
   3     -7.4067798  0.486572E-03  0.268E-01    5.43       1.0  T
   4     -7.4073146 -0.534801E-03  0.231E-02    5.44       1.9  T
   5     -7.4073174 -0.286149E-05  0.515E-03    5.43       8.7  T
   6     -7.4073174 -0.106317E-07  0.124E-03    5.43      36.0  T
   7     -7.4073174 -0.144453E-08  0.401E-04    5.43     111.5  T
   8     -7.4073174 -0.216958E-09  0.103E-04    5.43     435.8  T
     SCC iter.                  ...        0 min,  0.000 sec
     gradient                   ...        0 min,  0.001 sec
 * total energy  :    -7.2119052 Eh     change       -0.6221692E-03 Eh
   gradient norm :     0.0154400 Eh/α   predicted    -0.4432902E-03 ( -28.75%)
   displ. norm   :     0.1524707 α      lambda       -0.8841037E-03
   maximum displ.:     0.0876649 α      in ANC's #4, #1, #5, ...
 * RMSD in coord.:     1.8367665 α      energy gain  -0.1769931E+00 Eh

generating ANC from model Hessian ...
Using Lindh-Hessian (1995)
 Shifting diagonal of input Hessian by    9.6065946869522412E-003
 Lowest  eigenvalues of input Hessian
   -0.000000   -0.000000    0.000000    0.000000    0.000000    0.000000
    0.010000    0.010679    0.178035    0.256424    0.446334    0.738427
    0.882606    1.539404    2.687555
 Highest eigenvalues
    0.256424    0.446334    0.738427    0.882606    1.539404    2.687555


........................................................................
.............................. CYCLE   21 ..............................
........................................................................
   1     -7.4133007 -0.741330E+01  0.340E-01    5.64       0.0  T
   2     -7.4132794  0.212660E-04  0.218E-01    5.63       1.0  T
   3     -7.4127761  0.503279E-03  0.261E-01    5.63       1.0  T
   4     -7.4133132 -0.537107E-03  0.121E-02    5.64       3.7  T
   5     -7.4133136 -0.368260E-06  0.606E-03    5.63       7.4  T
   6     -7.4133137 -0.512296E-07  0.156E-03    5.64      28.6  T
   7     -7.4133137 -0.189565E-08  0.443E-04    5.64     100.8  T
   8     -7.4133137 -0.256374E-09  0.148E-04    5.64     301.2  T
     SCC iter.                  ...        0 min,  0.001 sec
     gradient                   ...        0 min,  0.001 sec
 * total energy  :    -7.2124819 Eh     change       -0.5766746E-03 Eh
   gradient norm :     0.0119312 Eh/α   predicted     0.0000000E+00 (-100.00%)
   displ. norm   :     0.4753692 α      lambda       -0.3379266E-02
   maximum displ.:     0.4619181 α      in ANC's #2, #1, #3, ...

........................................................................
.............................. CYCLE   22 ..............................
........................................................................
   1     -7.3868432 -0.738684E+01  0.140E+00    5.12       0.0  T
   2     -7.3868634 -0.201843E-04  0.856E-01    5.13       1.0  T
   3     -7.3863566  0.506808E-03  0.280E-01    5.07       1.0  T
   4     -7.3868060 -0.449415E-03  0.108E-01    5.10       1.0  T
   5     -7.3868949 -0.888748E-04  0.211E-02    5.11       2.1  T
   6     -7.3868954 -0.514288E-06  0.394E-03    5.11      11.4  T
   7     -7.3868954 -0.876267E-08  0.878E-04    5.11      50.9  T
   8     -7.3868954 -0.906206E-09  0.129E-04    5.11     347.9  T
     SCC iter.                  ...        0 min,  0.000 sec
     gradient                   ...        0 min,  0.001 sec
 * total energy  :    -7.2112204 Eh     change        0.1261447E-02 Eh
   gradient norm :     0.0427798 Eh/α   predicted    -0.2071458E-02 (-264.21%)
   displ. norm   :     0.2896941 α      lambda       -0.5940146E-02
   maximum displ.:     0.2882268 α      in ANC's #2, #1, #5, ...

........................................................................
.............................. CYCLE   23 ..............................
........................................................................
   1     -7.4122161 -0.741222E+01  0.934E-01    5.78       0.0  T
   2     -7.4122296 -0.134931E-04  0.570E-01    5.76       1.0  T
   3     -7.4117043  0.525372E-03  0.278E-01    5.80       1.0  T
   4     -7.4121830 -0.478789E-03  0.100E-01    5.78       1.0  T
   5     -7.4122592 -0.761394E-04  0.131E-02    5.77       3.4  T
   6     -7.4122593 -0.881345E-07  0.304E-03    5.77      14.7  T
   7     -7.4122593 -0.414173E-08  0.700E-04    5.77      63.8  T
   8     -7.4122593 -0.651774E-09  0.152E-04    5.77     294.0  T
     SCC iter.                  ...        0 min,  0.000 sec
     gradient                   ...        0 min,  0.001 sec
 * total energy  :    -7.2134226 Eh     change       -0.2202138E-02 Eh
   gradient norm :     0.0097436 Eh/α   predicted    -0.3219331E-02 (  46.19%)
   displ. norm   :     0.0562193 α      lambda       -0.2099573E-03
   maximum displ.:     0.0469497 α      in ANC's #1, #3, #2, ...

........................................................................
.............................. CYCLE   24 ..............................
........................................................................
   1     -7.4105294 -0.741053E+01  0.153E-01    5.74       0.0  T
   2     -7.4105277  0.171517E-05  0.938E-02    5.74       1.0  T
   3     -7.4104610  0.666857E-04  0.933E-02    5.74       1.0  T
   4     -7.4105305 -0.694338E-04  0.400E-03    5.74      11.2  T
   5     -7.4105305 -0.446398E-07  0.175E-03    5.74      25.5  T
   6     -7.4105305 -0.233292E-08  0.447E-04    5.74     100.0  T
   7     -7.4105305 -0.275762E-10  0.863E-05    5.74     518.3  T
     SCC iter.                  ...        0 min,  0.000 sec
     gradient                   ...        0 min,  0.001 sec
 * total energy  :    -7.2135912 Eh     change       -0.1686716E-03 Eh
   gradient norm :     0.0056928 Eh/α   predicted    -0.1053098E-03 ( -37.57%)
   displ. norm   :     0.1083835 α      lambda       -0.4403676E-03
   maximum displ.:     0.0752183 α      in ANC's #3, #2, #1, ...

........................................................................
.............................. CYCLE   25 ..............................
........................................................................
   1     -7.4064951 -0.740650E+01  0.305E-01    5.69       0.0  T
   2     -7.4064828  0.122522E-04  0.191E-01    5.69       1.0  T
   3     -7.4061158  0.367053E-03  0.219E-01    5.68       1.0  T
   4     -7.4065010 -0.385258E-03  0.861E-03    5.68       5.2  T
   5     -7.4065013 -0.236312E-06  0.359E-03    5.69      12.4  T
   6     -7.4065013 -0.285205E-08  0.648E-04    5.69      69.0  T
   7     -7.4065013 -0.283922E-09  0.259E-04    5.69     172.8  T
     SCC iter.                  ...        0 min,  0.000 sec
     gradient                   ...        0 min,  0.001 sec
 * total energy  :    -7.2138557 Eh     change       -0.2644779E-03 Eh
   gradient norm :     0.0093095 Eh/α   predicted    -0.2227713E-03 ( -15.77%)
   displ. norm   :     0.0455316 α      lambda       -0.1491759E-03
   maximum displ.:     0.0379371 α      in ANC's #3, #5, #2, ...

........................................................................
.............................. CYCLE   26 ..............................
........................................................................
   1     -7.4075387 -0.740754E+01  0.117E-01    5.72       0.0  T
   2     -7.4075375  0.116497E-05  0.727E-02    5.72       1.0  T
   3     -7.4074936  0.438583E-04  0.754E-02    5.72       1.0  T
   4     -7.4075393 -0.456990E-04  0.367E-03    5.72      12.2  T
   5     -7.4075394 -0.488742E-07  0.153E-03    5.72      29.1  T
   6     -7.4075394 -0.137651E-08  0.349E-04    5.72     128.3  T
   7     -7.4075394 -0.125673E-09  0.105E-04    5.72     427.0  T
     SCC iter.                  ...        0 min,  0.000 sec
     gradient                   ...        0 min,  0.001 sec
 * total energy  :    -7.2139760 Eh     change       -0.1202960E-03 Eh
   gradient norm :     0.0078507 Eh/α   predicted    -0.7474468E-04 ( -37.87%)
   displ. norm   :     0.0689049 α      lambda       -0.2137534E-03
   maximum displ.:     0.0524000 α      in ANC's #3, #5, #1, ...

........................................................................
.............................. CYCLE   27 ..............................
........................................................................
   1     -7.4109539 -0.741095E+01  0.189E-01    5.83       0.0  T
   2     -7.4109544 -0.455406E-06  0.115E-01    5.82       1.0  T
   3     -7.4109451  0.929893E-05  0.375E-02    5.83       1.2  T
   4     -7.4109535 -0.838954E-05  0.140E-02    5.83       3.2  T
   5     -7.4109549 -0.149236E-05  0.261E-03    5.82      17.1  T
   6     -7.4109550 -0.630816E-08  0.549E-04    5.83      81.5  T
   7     -7.4109550 -0.275535E-09  0.123E-04    5.83     362.3  T
     SCC iter.                  ...        0 min,  0.000 sec
     gradient                   ...        0 min,  0.001 sec
 * total energy  :    -7.2141017 Eh     change       -0.1256905E-03 Eh
   gradient norm :     0.0026703 Eh/α   predicted    -0.1073837E-03 ( -14.56%)
   displ. norm   :     0.0209183 α      lambda       -0.2479941E-04
   maximum displ.:     0.0121258 α      in ANC's #5, #3, #1, ...

........................................................................
.............................. CYCLE   28 ..............................
........................................................................
   1     -7.4116933 -0.741169E+01  0.573E-02    5.85       0.0  T
   2     -7.4116933 -0.574909E-07  0.349E-02    5.85       1.3  T
   3     -7.4116930  0.278380E-06  0.754E-03    5.86       5.9  T
   4     -7.4116933 -0.246699E-06  0.306E-03    5.85      14.6  T
   5     -7.4116934 -0.693103E-07  0.786E-04    5.85      56.9  T
   6     -7.4116934 -0.104561E-08  0.154E-04    5.85     290.5  T
     SCC iter.                  ...        0 min,  0.000 sec
     gradient                   ...        0 min,  0.001 sec
 * total energy  :    -7.2141206 Eh     change       -0.1892733E-04 Eh
   gradient norm :     0.0020029 Eh/α   predicted    -0.1240583E-04 ( -34.46%)
   displ. norm   :     0.0315552 α      lambda       -0.3207067E-04
   maximum displ.:     0.0193961 α      in ANC's #1, #5, #6, ...

........................................................................
.............................. CYCLE   29 ..............................
........................................................................
   1     -7.4124478 -0.741245E+01  0.811E-02    5.89       0.0  T
   2     -7.4124479 -0.133316E-06  0.495E-02    5.89       1.0  T
   3     -7.4124476  0.368954E-06  0.955E-03    5.89       4.7  T
   4     -7.4124480 -0.387633E-06  0.286E-03    5.89      15.6  T
   5     -7.4124480 -0.487680E-07  0.135E-03    5.89      33.0  T
   6     -7.4124480 -0.832464E-08  0.254E-04    5.89     176.0  T
   7     -7.4124480 -0.136522E-10  0.254E-05    5.89    1760.6  T
     SCC iter.                  ...        0 min,  0.000 sec
     gradient                   ...        0 min,  0.001 sec
 * total energy  :    -7.2141450 Eh     change       -0.2434478E-04 Eh
   gradient norm :     0.0023106 Eh/α   predicted    -0.1605159E-04 ( -34.07%)
   displ. norm   :     0.0451517 α      lambda       -0.4268994E-04
   maximum displ.:     0.0285249 α      in ANC's #5, #1, #4, ...

........................................................................
.............................. CYCLE   30 ..............................
........................................................................
   1     -7.4129370 -0.741294E+01  0.118E-01    5.93       0.0  T
   2     -7.4129373 -0.229806E-06  0.723E-02    5.93       1.0  T
   3     -7.4129363  0.971557E-06  0.137E-02    5.94       3.3  T
   4     -7.4129371 -0.832034E-06  0.607E-03    5.93       7.4  T
   5     -7.4129374 -0.271544E-06  0.172E-03    5.93      26.0  T
   6     -7.4129374 -0.864969E-08  0.379E-04    5.93     118.1  T
   7     -7.4129374 -0.272298E-10  0.347E-05    5.93    1287.1  T
     SCC iter.                  ...        0 min,  0.000 sec
     gradient                   ...        0 min,  0.001 sec
 * total energy  :    -7.2141778 Eh     change       -0.3283820E-04 Eh
   gradient norm :     0.0031121 Eh/α   predicted    -0.2139004E-04 ( -34.86%)
   displ. norm   :     0.0653366 α      lambda       -0.5763208E-04
   maximum displ.:     0.0423432 α      in ANC's #5, #1, #4, ...

........................................................................
.............................. CYCLE   31 ..............................
........................................................................
   1     -7.4129906 -0.741299E+01  0.175E-01    5.97       0.0  T
   2     -7.4129909 -0.360185E-06  0.107E-01    5.96       1.0  T
   3     -7.4129903  0.626273E-06  0.123E-02    5.97       3.6  T
   4     -7.4129909 -0.621268E-06  0.549E-03    5.96       8.2  T
   5     -7.4129911 -0.167178E-06  0.278E-03    5.96      16.1  T
   6     -7.4129911 -0.338435E-07  0.509E-04    5.96      87.9  T
   7     -7.4129911 -0.620872E-10  0.498E-05    5.96     898.5  T
     SCC iter.                  ...        0 min,  0.000 sec
     gradient                   ...        0 min,  0.001 sec
 * total energy  :    -7.2142200 Eh     change       -0.4216432E-04 Eh
   gradient norm :     0.0037087 Eh/α   predicted    -0.2893944E-04 ( -31.37%)
   displ. norm   :     0.0637780 α      lambda       -0.4966294E-04
   maximum displ.:     0.0416644 α      in ANC's #5, #3, #4, ...

........................................................................
.............................. CYCLE   32 ..............................
........................................................................
   1     -7.4128253 -0.741283E+01  0.173E-01    5.98       0.0  T
   2     -7.4128255 -0.227143E-06  0.105E-01    5.98       1.0  T
   3     -7.4128253  0.177378E-06  0.739E-03    5.98       6.0  T
   4     -7.4128255 -0.189788E-06  0.442E-03    5.98      10.1  T
   5     -7.4128256 -0.916118E-07  0.235E-03    5.98      19.1  T
   6     -7.4128256 -0.226950E-07  0.400E-04    5.98     111.8  T
   7     -7.4128256 -0.805098E-10  0.495E-05    5.98     904.2  T
     SCC iter.                  ...        0 min,  0.000 sec
     gradient                   ...        0 min,  0.001 sec
 * total energy  :    -7.2142543 Eh     change       -0.3438126E-04 Eh
   gradient norm :     0.0030351 Eh/α   predicted    -0.2493420E-04 ( -27.48%)
   displ. norm   :     0.0385391 α      lambda       -0.2611869E-04
   maximum displ.:     0.0240704 α      in ANC's #3, #5, #4, ...

........................................................................
.............................. CYCLE   33 ..............................
........................................................................
   1     -7.4130079 -0.741301E+01  0.103E-01    5.98       0.0  T
   2     -7.4130079 -0.307998E-07  0.621E-02    5.98       1.0  T
   3     -7.4130066  0.127473E-05  0.130E-02    5.98       3.4  T
   4     -7.4130080 -0.133852E-05  0.151E-03    5.98      29.6  T
   5     -7.4130080 -0.591436E-09  0.709E-04    5.98      63.1  T
   6     -7.4130080 -0.115825E-08  0.195E-04    5.98     229.7  T
     SCC iter.                  ...        0 min,  0.000 sec
     gradient                   ...        0 min,  0.001 sec
 * total energy  :    -7.2142709 Eh     change       -0.1658412E-04 Eh
   gradient norm :     0.0012152 Eh/α   predicted    -0.1307868E-04 ( -21.14%)
   displ. norm   :     0.0203807 α      lambda       -0.4328688E-05
   maximum displ.:     0.0125687 α      in ANC's #3, #2, #5, ...

........................................................................
.............................. CYCLE   34 ..............................
........................................................................
   1     -7.4131671 -0.741317E+01  0.513E-02    5.98       0.0  T
   2     -7.4131671 -0.941629E-08  0.310E-02    5.98       1.4  T
   3     -7.4131670  0.110810E-06  0.398E-03    5.98      11.3  T
   4     -7.4131672 -0.120383E-06  0.678E-04    5.98      65.9  T
   5     -7.4131672 -0.435270E-10  0.156E-04    5.98     285.9  T
     SCC iter.                  ...        0 min,  0.000 sec
     gradient                   ...        0 min,  0.001 sec
 * total energy  :    -7.2142733 Eh     change       -0.2340555E-05 Eh
   gradient norm :     0.0005864 Eh/α   predicted    -0.2164245E-05 (  -7.53%)
   displ. norm   :     0.0053915 α      lambda       -0.4949593E-06
   maximum displ.:     0.0032092 α      in ANC's #3, #5, #1, ...

   *** GEOMETRY OPTIMIZATION CONVERGED AFTER 34 ITERATIONS ***

------------------------------------------------------------------------
 total energy gain   :        -0.1793612 Eh     -112.5509 kcal/mol
 total RMSD          :         1.9957639 a0        1.0561 Å
 total power (kW/mol):       -13.8503776 (step)-6948.5935 (real)
------------------------------------------------------------------------

 ANCopt (total)                0 d,  0 h,  0 min,  0.068 sec
 optimizer setup                ...        0 min,  0.000 sec (  0.115%)
 model hessian                  ...        0 min,  0.000 sec (  0.182%)
 ANC generation                 ...        0 min,  0.000 sec (  0.150%)
 coordinate transformation      ...        0 min,  0.000 sec (  0.114%)
 single point calculation       ...        0 min,  0.065 sec ( 95.725%)
 optimization log               ...        0 min,  0.001 sec (  1.201%)
 hessian update                 ...        0 min,  0.000 sec (  0.103%)
 rational function              ...        0 min,  0.001 sec (  1.061%)

================
 final structure:
================
5
 xtb: 6.2.2 (9d81278992624c895f80dd42a50cac0aa55982e2)
C         0.00027034547893    0.00028780057920    0.00082767582998
C         1.21269047724664   -0.34528467894168   -0.02742712747266
C        -1.22096818385147    0.31429939359295    0.02529062621682
H        -2.22131483813873    0.62420577700716    0.03734803100278
H         2.22932319926465   -0.59350729223760   -0.03604020557682

 Bond Distances (Angstroems)
 ---------------------------
C1-C2=1.2610         C1-C3=1.2612         C2-C1=1.2610         C2-H5=1.0465         C3-C1=1.2612         C3-H4=1.0473         
H4-C3=1.0473         H5-C2=1.0465         
 C  H  Rav=1.0469 sigma=0.0004  Rmin=1.0465  Rmax=1.0473     2
 C  C  Rav=1.2611 sigma=0.0001  Rmin=1.2610  Rmax=1.2612     2

 selected bond angles (degree)
 --------------------
C3-C1-C2=178.50                H5-C2-C1=177.67                H4-C3-C1=177.17                

 selected dihedral angles (degree)
 ---------------------------------
H5-C2-C1-C3=193.76            H4-C3-C1-C2=195.79            
           -------------------------------------------------
          |                Final Singlepoint                |
           -------------------------------------------------

          ...................................................
          :                      SETUP                      :
          :.................................................:
          :  # basis functions                  14          :
          :  # atomic orbitals                  14          :
          :  # shells                            8          :
          :  # electrons                        14          :
          :  max. iterations                   250          :
          :  Hamiltonian                  GFN2-xTB          :
          :  restarted?                      false          :
          :  GBSA solvation                  false          :
          :  PC potential                    false          :
          :  electronic temp.          300.0000000     K    :
          :  accuracy                    1.0000000          :
          :  -> integral cutoff          0.2500000E+02      :
          :  -> integral neglect         0.1000000E-07      :
          :  -> SCF convergence          0.1000000E-05 Eh   :
          :  -> wf. convergence          0.1000000E-03 e    :
          :  Broyden damping             0.4000000          :
          ...................................................

 iter      E             dE          RMSdq      gap      omega  full diag
   1     -7.4131672 -0.741317E+01  0.476E-05    5.98       0.0  T
   2     -7.4131672 -0.546763E-11  0.276E-05    5.98    1617.9  T
   3     -7.4131672 -0.263345E-11  0.859E-06    5.98    5203.5  T

   *** convergence criteria satisfied after 3 iterations ***

         #    Occupation            Energy/Eh            Energy/eV
      -------------------------------------------------------------
         1        2.0000           -0.6172555             -16.7964
         2        2.0000           -0.5828214             -15.8594
         3        2.0000           -0.5221123             -14.2074
         4        2.0000           -0.4860265             -13.2255
         5        2.0000           -0.4491358             -12.2216
         6        2.0000           -0.4491220             -12.2212
         7        1.0000           -0.3242903              -8.8244
         8        1.0000           -0.3242139              -8.8223 (HOMO)
         9                         -0.1042999              -2.8381 (LUMO)
        10                         -0.1040223              -2.8306
        11                          0.0514050               1.3988
        12                          0.2224005               6.0518
        13                          0.7229515              19.6725
        14                          1.4504707              39.4693
      -------------------------------------------------------------
                  HL-Gap            0.2199140 Eh            5.9842 eV
             Fermi-level           -0.3004815 Eh           -8.1765 eV

 transition dipole moment (au) for excitation:           7           8
     X       Y       Z   
  -0.0003   0.0001   0.0121  total (au/Debye):    0.012   0.031
 dE (eV)             :    0.002
 oscillator strength :  0.10557E-07

 SCC (total)                   0 d,  0 h,  0 min,  0.002 sec
 SCC setup                      ...        0 min,  0.000 sec (  2.174%)
 Dispersion                     ...        0 min,  0.000 sec (  0.468%)
 integral evaluation            ...        0 min,  0.001 sec ( 31.368%)
 zeroth order Hamiltonian       ...        0 min,  0.000 sec (  0.457%)
 iterations                     ...        0 min,  0.000 sec ( 10.946%)
 molecular gradient             ...        0 min,  0.001 sec ( 30.487%)
 printout                       ...        0 min,  0.001 sec ( 23.654%)

         :::::::::::::::::::::::::::::::::::::::::::::::::::::
         ::                     SUMMARY                     ::
         :::::::::::::::::::::::::::::::::::::::::::::::::::::
         :: total energy              -7.214273266543 Eh    ::
         :: gradient norm              0.000595578904 Eh/a0 ::
         :: HOMO-LUMO gap              5.984164738351 eV    ::
         ::.................................................::
         :: SCC energy                -7.413167152328 Eh    ::
         :: -> isotropic ES            0.001334313809 Eh    ::
         :: -> anisotropic ES         -0.001549820523 Eh    ::
         :: -> anisotropic XC          0.015528046699 Eh    ::
         :: -> dispersion             -0.001548222493 Eh    ::
         :: repulsion energy           0.198894161640 Eh    ::
         :: add. restraining           0.000000000000 Eh    ::
         :::::::::::::::::::::::::::::::::::::::::::::::::::::

           ------------------------------------------------- 
          |                Numerical Hessian                |
           ------------------------------------------------- 
step length          :   0.00500
SCC accuracy         :   0.30000
Hessian scale factor :   1.00000
frozen atoms in %    :   0.00000    0
RMS gradient         :   0.00060
estimated CPU  time      0.00 min
estimated wall time      0.00 min

writing file <hessian>.

 projected vibrational frequencies (cm-1)
eigval :       -0.00    -0.00     0.00     0.00     0.00     0.00
eigval :       94.69   256.51   269.35   415.94   429.39  1352.38
eigval :     1901.89  3391.88  3404.56
           -------------------------------------------------
          |                Property Printout                |
           -------------------------------------------------

    * Orbital Energies and Occupations

         #    Occupation            Energy/Eh            Energy/eV
      -------------------------------------------------------------
         1        2.0000           -0.6172554             -16.7964
         2        2.0000           -0.5828213             -15.8594
         3        2.0000           -0.5221123             -14.2074
         4        2.0000           -0.4860264             -13.2255
         5        2.0000           -0.4491357             -12.2216
         6        2.0000           -0.4491219             -12.2212
         7        1.0000           -0.3242902              -8.8244
         8        1.0000           -0.3242138              -8.8223 (HOMO)
         9                         -0.1042998              -2.8381 (LUMO)
        10                         -0.1040222              -2.8306
        11                          0.0514050               1.3988
        12                          0.2224005               6.0518
        13                          0.7229516              19.6725
        14                          1.4504709              39.4693
      -------------------------------------------------------------
                  HL-Gap            0.2199140 Eh            5.9842 eV
             Fermi-level           -0.3004814 Eh           -8.1765 eV

     #   Z        covCN         q      C6AA      α(0)
     1   6 C      1.962     0.020    30.560     8.927
     2   6 C      1.912    -0.090    33.588     9.360
     3   6 C      1.912    -0.090    33.588     9.360
     4   1 H      0.928     0.080     1.975     2.197
     5   1 H      0.928     0.080     1.974     2.197

 Mol. C6AA /au·bohr⁶  :        397.123485
 Mol. C8AA /au·bohr⁸  :      10369.432295
 Mol. α(0) /au        :         32.041212


Wiberg/Mayer (AO) data.
largest (>0.10) Wiberg bond orders for each atom
          total WBO             WBO to atom ...
     1  C   3.985        C    2 1.984    C    3 1.983
Molecule has the following symmetry elements: (i) (Cinf) (C2) 2*(sigma) 
It seems to be the Dinfh point group
     2  C   2.972        C    1 1.984    H    5 0.974
     3  C   2.971        C    1 1.983    H    4 0.974
     4  H   0.993        C    3 0.974
     5  H   0.993        C    2 0.974

MOs/occ written to file <molden.input>


molecular dipole:
                 x           y           z       tot (Debye)
 q only:        0.003       0.010       0.001
   full:        0.006       0.022       0.001       0.057
molecular quadrupole (traceless):
                xx          xy          yy          xz          yz          zz
 q only:        1.817      -0.779      -0.802      -0.039       0.011      -1.015
  q+dip:        6.730      -2.876      -2.971      -0.161       0.044      -3.759
   full:        3.843      -1.650      -1.694      -0.078       0.022      -2.148

           -------------------------------------------------
          |                Geometry Summary                 |
           -------------------------------------------------

      molecular mass/u    :       38.0480892
   center of mass at/Å    :       -0.0023156      -0.0088771      -0.0003785
  moments of inertia/u·Å² :        0.3772653E-02   0.4893001E+02   0.4893333E+02
rotational constants/cm⁻¹ :        0.4468376E+04   0.3445254E+00   0.3445021E+00

 * 4 selected distances

     #   Z        #   Z                                     value/Å
     1   6 C      2   6 C                                 1.2610239
     1   6 C      3   6 C                                 1.2611999 (max)
     3   6 C      4   1 H                                 1.0473208
     2   6 C      5   1 H                                 1.0465327 (min)

 * 2 distinct bonds (by element types)

   Z      Z             #   av. dist./Å        max./Å        min./Å
   1 H    6 C           2     1.0469267     1.0473208     1.0465327
   6 C    6 C           2     1.2611119     1.2611999     1.2610239

           -------------------------------------------------
          |               Frequency Printout                |
           -------------------------------------------------
 projected vibrational frequencies (cm-1)
eigval :       -0.00    -0.00     0.00     0.00     0.00     0.00
eigval :       94.69   256.51   269.35   415.94   429.39  1352.38
eigval :     1901.89  3391.88  3404.56
 reduced masses (amu)
   1:  9.12   2: 10.39   3: 11.42   4: 11.14   5:  9.69   6:  9.45   7:  8.40   8:  4.13
   9:  3.44  10:  5.35  11:  4.99  12: 10.88  13: 11.51  14:  2.10  15:  2.14
 IR intensities (amu)
   1:  0.21   2:  0.24   3:  0.17   4:  0.12   5:  0.05   6:  0.14   7:  0.37   8:  0.10
   9:  0.02  10:  0.04  11:  0.05  12:  0.01  13:  0.01  14:  0.17  15:  0.07
 Raman intensities (amu)
   1:  0.00   2:  0.00   3:  0.00   4:  0.00   5:  0.00   6:  0.00   7:  0.00   8:  0.00
   9:  0.00  10:  0.00  11:  0.00  12:  0.00  13:  0.00  14:  0.00  15:  0.00
 output can be read by thermo (or use thermo option).
 writing <g98.out> molden fake output.
 recommended (thermochemical) frequency scaling factor: 1.0
           -------------------------------------------------
          |             Thermodynamic Functions             |
           -------------------------------------------------

din symmetry found (for desy threshold:  0.10E+00) used in thermo

          ...................................................
          :                      SETUP                      :
          :.................................................:
          :  # frequencies                           9      :
          :  # imaginary freq.                       0      :
          :  linear?                             false      :
          :  only rotor calc.                    false      :
          :  symmetry                              din      :
          :  rotational number                       1      :
          :  scaling factor                  1.0000000      :
          :  rotor cutoff                   50.0000000 cm⁻¹ :
          :  imag. cutoff                  -20.0000000 cm⁻¹ :
          :.................................................:

    mode    ω/cm⁻¹     T·S(HO)/kcal·mol⁻¹    T·S(FR)/kcal·mol⁻¹   T·S(vib)
   ------------------------------------------------------------------------
       1     94.69    -0.00000 ( 92.79%)     0.00470 (  7.21%)     0.00034
       2    256.51    -0.00000 ( 99.86%)     0.01456 (  0.14%)     0.00002
       3    269.35    -0.00000 ( 99.88%)     0.01505 (  0.12%)     0.00002
   ------------------------------------------------------------------------

   temp. (K)  partition function   enthalpy   heat capacity  entropy
                                   cal/mol     cal/K/mol   cal/K/mol   J/K/mol
 298.15  VIB   6.99                 1423.275      8.418      8.591
         ROT   230.                  888.752      2.981     13.784
         INT  0.160E+04             2312.027     11.399     22.375
         TR   0.227E+27             1481.254      4.968     36.821
         TOT                        3793.2809    16.3672    59.1958   247.6753

   temp. (K)  partition function   enthalpy   heat capacity  entropy
                                   cal/mol     cal/K/mol   cal/K/mol   J/K/mol
 120.00  VIB   1.63                  210.759      4.282      2.739
         ROT   58.6                  357.707      2.981     11.071
         INT   95.5                  568.466      7.263     13.811
         TR   0.580E+26              596.178      4.968     32.302
         TOT                        1164.6440    12.2307    46.1122   192.9336

   temp. (K)  partition function   enthalpy   heat capacity  entropy
                                   cal/mol     cal/K/mol   cal/K/mol   J/K/mol
 100.00  VIB   1.41                  133.821      3.401      2.050
         ROT   44.6                  298.089      2.981     10.528
         INT   63.1                  431.910      6.382     12.578
         TR   0.441E+26              496.815      4.968     31.396
         TOT                         928.7251    11.3498    43.9742   183.9882

   temp. (K)  partition function   enthalpy   heat capacity  entropy
                                   cal/mol     cal/K/mol   cal/K/mol   J/K/mol
  80.00  VIB   1.25                   74.967      2.486      1.407
         ROT   31.9                  238.471      2.981      9.863
         INT   39.8                  313.438      5.467     11.270
         TR   0.316E+26              397.452      4.968     30.288
         TOT                         710.8899    10.4347    41.5582   173.8797

   temp. (K)  partition function   enthalpy   heat capacity  entropy
                                   cal/mol     cal/K/mol   cal/K/mol   J/K/mol
  60.00  VIB   1.12                   34.041      1.623      0.834
         ROT   20.7                  178.853      2.981      9.005
         INT   23.2                  212.894      4.604      9.839
         TR   0.205E+26              298.089      4.968     28.860
         TOT                         510.9833     9.5720    38.6982   161.9133

   temp. (K)  partition function   enthalpy   heat capacity  entropy
                                   cal/mol     cal/K/mol   cal/K/mol   J/K/mol
  40.00  VIB   1.03                    9.410      0.847      0.346
         ROT   11.3                  119.236      2.981      7.796
         INT   11.7                  128.645      3.827      8.142
         TR   0.112E+26              198.726      4.968     26.846
         TOT                         327.3712     8.7956    34.9886   146.3924

   temp. (K)  partition function   enthalpy   heat capacity  entropy
                                   cal/mol     cal/K/mol   cal/K/mol   J/K/mol
  20.00  VIB   1.00                    0.298      0.102      0.029
         ROT   3.99                   59.618      2.981      5.730
         INT   3.99                   59.916      3.083      5.759
         TR   0.395E+25               99.363      4.968     23.404
         TOT                         159.2790     8.0507    29.1636   122.0203

   temp. (K)  partition function   enthalpy   heat capacity  entropy
                                   cal/mol     cal/K/mol   cal/K/mol   J/K/mol
  10.00  VIB   1.00                    0.000      0.000     -0.038
         ROT   1.41                   29.809      2.981      3.664
         INT   1.41                   29.809      2.981      3.626
         TR   0.139E+25               49.681      4.968     19.962
         TOT                          79.4907     7.9495    23.5878    98.6913

       T/K    H(0)-H(T)+PV         H(T)/Eh          T*S/Eh         G(T)/Eh
   ------------------------------------------------------------------------
    298.15    0.604498E-02    0.322817E-01    0.281258E-01    0.415587E-02
    120.00    0.185598E-02    0.280927E-01    0.881814E-02    0.192746E-01
    100.00    0.148002E-02    0.277168E-01    0.700774E-02    0.207090E-01
     80.00    0.113288E-02    0.273696E-01    0.529818E-02    0.220714E-01
     60.00    0.814304E-03    0.270510E-01    0.370017E-02    0.233509E-01
     40.00    0.521699E-03    0.267584E-01    0.223032E-02    0.245281E-01
     20.00    0.253827E-03    0.264906E-01    0.929502E-03    0.255611E-01
     10.00    0.126677E-03    0.263634E-01    0.375895E-03    0.259875E-01 (used)
   ------------------------------------------------------------------------

         :::::::::::::::::::::::::::::::::::::::::::::::::::::
         ::                  THERMODYNAMIC                  ::
         :::::::::::::::::::::::::::::::::::::::::::::::::::::
         :: total free energy          -7.188285748072 Eh   ::
         ::.................................................::
         :: total energy               -7.214273266336 Eh   ::
         :: zero point energy           0.026236737170 Eh   ::
         :: G(RRHO) w/o ZPVE           -0.000249218905 Eh   ::
         :: G(RRHO) contrib.            0.025987518265 Eh   ::
         :::::::::::::::::::::::::::::::::::::::::::::::::::::

optimized geometry written to: xtbopt.xyz


           -------------------------------------------------
          | TOTAL ENERGY               -7.214273266336 Eh   |
          | TOTAL ENTHALPY             -7.187909852628 Eh   |
          | TOTAL FREE ENERGY          -7.188285748072 Eh   |
          | GRADIENT NORM               0.000595573981 Eh/α |
          | HOMO-LUMO GAP               5.984165491046 eV   |
           -------------------------------------------------

------------------------------------------------------------------------
 * finished run on 2020/05/12 at 11:44:26.210     
------------------------------------------------------------------------
 total:
 * wall-time:     0 d,  0 h,  0 min,  0.147 sec
 *  cpu-time:     0 d,  0 h,  0 min,  0.147 sec
 * ratio c/w:     0.998 speedup
 SCF:
 * wall-time:     0 d,  0 h,  0 min,  0.005 sec
 *  cpu-time:     0 d,  0 h,  0 min,  0.005 sec
 * ratio c/w:     0.999 speedup
 ANC optimizer:
 * wall-time:     0 d,  0 h,  0 min,  0.071 sec
 *  cpu-time:     0 d,  0 h,  0 min,  0.071 sec
 * ratio c/w:     1.000 speedup
 numerical hessian:
 * wall-time:     0 d,  0 h,  0 min,  0.053 sec
 *  cpu-time:     0 d,  0 h,  0 min,  0.053 sec
 * ratio c/w:     0.997 speedup

