5
 energy: -7.034912042646 gnorm: 0.196092042746 xtb: 6.2.2 (9d81278992624c895f80dd42a50cac0aa55982e2)
C        -0.42814000000000    0.04450200000000   -0.31857000000000
C         0.85898100000000   -0.48406200000000    0.28029700000000
C        -1.59820800000000   -0.75225300000000    0.21825600000000
H        -0.55536500000000    1.11353100000000   -0.04857100000000
H         1.72273300000000    0.07828300000000   -0.13141300000000
5
 energy: -7.080080717563 gnorm: 0.109491000132 xtb: 6.2.2 (9d81278992624c895f80dd42a50cac0aa55982e2)
C        -0.43593507165879    0.00166419559264   -0.17335877410809
C         0.84722408300513   -0.45635933799169    0.20903985656624
C        -1.59599707722853   -0.72470562135642    0.17310509063476
H        -0.55475986817639    1.10082840714652   -0.09171250762166
H         1.73946893405857    0.07857335660894   -0.11707466547125
5
 energy: -7.097126255531 gnorm: 0.070400492195 xtb: 6.2.2 (9d81278992624c895f80dd42a50cac0aa55982e2)
C        -0.43311233819031   -0.06028853635144   -0.06718083920280
C         0.82095925639093   -0.37463514107724    0.14572559562131
C        -1.58437974451849   -0.65599148223061    0.12751337569257
H        -0.57534001911636    1.03531193329677   -0.09754876778525
H         1.77187384543424    0.05560422636252   -0.10851036432583
5
 energy: -7.099189668131 gnorm: 0.073310047865 xtb: 6.2.2 (9d81278992624c895f80dd42a50cac0aa55982e2)
C        -0.42483054358028   -0.11483688077580    0.07972065596944
C         0.91765732670226   -0.34997413341534    0.10927606945423
C        -1.72712950112303   -0.61087081102564    0.06754496489223
H        -0.61459894890162    1.00147837561792   -0.12846300771640
H         1.84890266690266    0.07420444959886   -0.12807968259951
5
 energy: -7.104949456822 gnorm: 0.018936949067 xtb: 6.2.2 (9d81278992624c895f80dd42a50cac0aa55982e2)
C        -0.42076609095138   -0.09451974240689    0.00359029568018
C         0.88233539246430   -0.35673866633521    0.09534398594378
C        -1.67028459821681   -0.59230898780428    0.10640678494763
H        -0.64016613688041    0.98148576835480   -0.10903144208394
H         1.84888243358429    0.06208262819159   -0.09631062448765
5
 energy: -7.106162919637 gnorm: 0.011175197290 xtb: 6.2.2 (9d81278992624c895f80dd42a50cac0aa55982e2)
C        -0.39600661877407   -0.08893538834660    0.02046723975476
C         0.88864746574259   -0.33724123140762    0.10643023703219
C        -1.65610785051067   -0.57166181957541    0.08921357715864
H        -0.69812577726447    0.97215458567918   -0.10328051215677
H         1.86159378080662    0.02568485365045   -0.11283154178883
5
 energy: -7.108367949767 gnorm: 0.011850758775 xtb: 6.2.2 (9d81278992624c895f80dd42a50cac0aa55982e2)
C        -0.35752045143111   -0.09461194326598    0.04637477330239
C         0.92105776724679   -0.33498745943750    0.04130696316731
C        -1.64543212553984   -0.48277686869046    0.09252886977077
H        -0.84715203393022    0.92727185950981   -0.10679720636853
H         1.92904784365439   -0.01489458811587   -0.07341439987193
5
 energy: -7.110680787841 gnorm: 0.024917700627 xtb: 6.2.2 (9d81278992624c895f80dd42a50cac0aa55982e2)
C        -0.30822606783641   -0.11103719851441    0.05873070787773
C         0.96043606020467   -0.29986617178152    0.00843704088346
C        -1.64464835359806   -0.37694830197216    0.08088746804152
H        -0.99787078660235    0.85441887741504   -0.08673619167150
H         1.99031014783215   -0.06656620514695   -0.06132002513120
5
 energy: -7.117722841799 gnorm: 0.064373561144 xtb: 6.2.2 (9d81278992624c895f80dd42a50cac0aa55982e2)
C        -0.25954692568465   -0.10633514214649    0.07303073318165
C         0.99628269403025   -0.25010827877225   -0.01560318131517
C        -1.60810387105393   -0.27787967361773    0.06288177677332
H        -1.20426241544347    0.80337961541827   -0.06545759115037
H         2.07563151815180   -0.16905552088180   -0.05485273748943
5
 energy: -7.121411887910 gnorm: 0.329800357104 xtb: 6.2.2 (9d81278992624c895f80dd42a50cac0aa55982e2)
C        -0.16698064145376   -0.11306494999927    0.09849581867079
C         1.06247546057224   -0.26812396209457   -0.06501374985348
C        -1.54088728401468   -0.12323774718899    0.05108841309593
H        -1.46876390139883    0.75354853410605   -0.05863090634143
H         2.11415736629503   -0.24912087482321   -0.02594057557180
5
 energy: -7.168244302296 gnorm: 0.137471866546 xtb: 6.2.2 (9d81278992624c895f80dd42a50cac0aa55982e2)
C        -0.13611701025749   -0.08222450379900    0.10405315705243
C         1.08251039255872   -0.33478867976452   -0.04803074573403
C        -1.42322296380878   -0.13624331282562    0.04718013009992
H        -1.57634682311111    0.86585591634521   -0.07985320389669
H         2.05317740461867   -0.31259841995608   -0.02335033752164
5
 energy: -7.176135298233 gnorm: 0.192390689984 xtb: 6.2.2 (9d81278992624c895f80dd42a50cac0aa55982e2)
C        -0.09398611817513   -0.04533345193570    0.11830925165797
C         1.08482932956044   -0.30444296387050   -0.08943027083043
C        -1.33321404898888   -0.10618816993233    0.04825454370090
H        -1.88357623437757    0.94933390870677   -0.07878374028338
H         2.22594807198114   -0.49336832296824    0.00164921575493
5
 energy: -7.193016849081 gnorm: 0.113941508601 xtb: 6.2.2 (9d81278992624c895f80dd42a50cac0aa55982e2)
C        -0.01912248489998   -0.06852910278097    0.15283728308884
C         1.16039651632559   -0.40422933031951   -0.09370751876754
C        -1.31903466381566   -0.02703939089819    0.03575502476405
H        -1.96935383287406    0.95760156114701   -0.09810397200283
H         2.14711546526412   -0.45780273714834    0.00321818291749
5
 energy: -7.180654068842 gnorm: 0.135733540086 xtb: 6.2.2 (9d81278992624c895f80dd42a50cac0aa55982e2)
C        -0.09451259931344   -0.14552976648693    0.11371322382489
C         1.12479200529476   -0.37941649091010   -0.13739120480910
C        -1.48803409365445   -0.06211091140272    0.07527363513475
H        -1.75489909683907    0.90304475104294   -0.08382858593656
H         2.21265478451220   -0.31598658224319    0.03223193178602
5
 energy: -7.201872847553 gnorm: 0.042505362287 xtb: 6.2.2 (9d81278992624c895f80dd42a50cac0aa55982e2)
C        -0.07026455677903   -0.11084569960186    0.08021362529955
C         1.12852095044257   -0.38901318827445   -0.11240346152055
C        -1.37088031024797   -0.02967509983153    0.07294375962711
H        -1.86219526594666    0.91940286335818   -0.07103981316325
H         2.17482018253110   -0.38986787565033    0.03028488975715
5
 energy: -7.205451754932 gnorm: 0.057527366595 xtb: 6.2.2 (9d81278992624c895f80dd42a50cac0aa55982e2)
C        -0.05577597868552   -0.10864130373830    0.06004481319950
C         1.15119131620496   -0.40030770215348   -0.11092547369671
C        -1.32095818122515    0.01733209964341    0.07301757326707
H        -1.94927129401838    0.91666003233282   -0.06006830903463
H         2.17481513772409   -0.42504212608444    0.03793039626478
5
 energy: -7.208108857756 gnorm: 0.040791123555 xtb: 6.2.2 (9d81278992624c895f80dd42a50cac0aa55982e2)
C        -0.04383385401067   -0.12265144910289    0.03442004391632
C         1.16568139455889   -0.38777891342811   -0.08392747234985
C        -1.31530298997116    0.05183538757173    0.06475851429694
H        -1.99281291186109    0.90044209363704   -0.03499350277881
H         2.18626936128404   -0.44184611867777    0.01974141691540
5
 energy: -7.210612916730 gnorm: 0.019740369966 xtb: 6.2.2 (9d81278992624c895f80dd42a50cac0aa55982e2)
C        -0.05158340314832   -0.13796695227584   -0.00894525216871
C         1.18760278928565   -0.36084799428352   -0.05737721286636
C        -1.30924566205245    0.10319481942584    0.05881430577507
H        -2.05402915592121    0.86514459824015    0.00124653037746
H         2.22725643183633   -0.46952347110664    0.00626062888253
5
 energy: -7.211283018075 gnorm: 0.014701191399 xtb: 6.2.2 (9d81278992624c895f80dd42a50cac0aa55982e2)
C        -0.04984524516096   -0.13497045739838   -0.02461613360312
C         1.19107370971859   -0.34361083652708   -0.03117079607049
C        -1.29549419728997    0.12329109574591    0.04910688953107
H        -2.07588488373576    0.84231217361256    0.01845667432499
H         2.23015161646810   -0.48702097543300   -0.01177763418245
5
 energy: -7.211905187251 gnorm: 0.017817397563 xtb: 6.2.2 (9d81278992624c895f80dd42a50cac0aa55982e2)
C        -0.04165380113683   -0.12547909507478   -0.03727981140269
C         1.19769225809274   -0.33097734124264   -0.00344495325089
C        -1.27542099900912    0.15347730844389    0.03741849179593
H        -2.11114695093856    0.80965403860413    0.03461776935920
H         2.23053049299177   -0.50667391073059   -0.03131249650155
5
 energy: -7.212481861841 gnorm: 0.011931151317 xtb: 6.2.2 (9d81278992624c895f80dd42a50cac0aa55982e2)
C        -0.03411294632380   -0.10974089246654   -0.04387076807451
C         1.20301733004301   -0.31895688976982    0.02924724542851
C        -1.25990445335577    0.18326114696817    0.02238587714015
H        -2.13275790748201    0.76372321383317    0.04842067132170
H         2.22375897711857   -0.51828557856499   -0.05618402581585
5
 energy: -7.211220415330 gnorm: 0.043040143079 xtb: 6.2.2 (9d81278992624c895f80dd42a50cac0aa55982e2)
C         0.00874086220867    0.06011375094777   -0.10714734104884
C         1.20399515594792   -0.38996277379314    0.03140664489528
C        -1.24648657836399    0.21471389206000    0.10809868163116
H        -2.19956886337128    0.68061420891649    0.01339152619536
H         2.23332042357867   -0.56547807813109   -0.04575051167287
5
 energy: -7.213422553086 gnorm: 0.009826325378 xtb: 6.2.2 (9d81278992624c895f80dd42a50cac0aa55982e2)
C        -0.01336052003194   -0.03173825520701   -0.06113453602983
C         1.20663572895600   -0.31858546117533    0.02763003346965
C        -1.25206603726835    0.19909455010276    0.04683752847826
H        -2.16426655539474    0.71644656005941    0.03867991797230
H         2.22305838373903   -0.56521639377983   -0.05201394389033
5
 energy: -7.213591224647 gnorm: 0.005852834715 xtb: 6.2.2 (9d81278992624c895f80dd42a50cac0aa55982e2)
C        -0.01294325711232   -0.03083039136655   -0.05569010068767
C         1.20532030375139   -0.34081317409734    0.03296189423218
C        -1.25179477550321    0.20586202514322    0.04536123744022
H        -2.16781716063992    0.71679469195478    0.03589442403369
H         2.22723588950407   -0.55101215163410   -0.05852845501839
5
 energy: -7.213855702554 gnorm: 0.009456249732 xtb: 6.2.2 (9d81278992624c895f80dd42a50cac0aa55982e2)
C        -0.00544624291654   -0.00862919014924   -0.03999073195116
C         1.20520239777433   -0.37251329239974    0.04319002364064
C        -1.24716470632838    0.22634892091569    0.03897809809362
H        -2.18583290366172    0.70019185954766    0.03079580383467
H         2.23324245513231   -0.54539729791435   -0.07297419361771
5
 energy: -7.213975998561 gnorm: 0.007987203010 xtb: 6.2.2 (9d81278992624c895f80dd42a50cac0aa55982e2)
C        -0.00200306140060   -0.00169030532203   -0.02821169358455
C         1.20522682998135   -0.37650456783689    0.04625803476515
C        -1.24336047375945    0.23601285583426    0.03049784916954
H        -2.19131638974902    0.69048009140005    0.03080621180035
H         2.23145409492773   -0.54829707407537   -0.07935140215044
5
 energy: -7.214101689065 gnorm: 0.002800282066 xtb: 6.2.2 (9d81278992624c895f80dd42a50cac0aa55982e2)
C         0.00147148589073    0.00326028003188   -0.00799292511664
C         1.20486957123758   -0.37376168990496    0.04793135139705
C        -1.23733838812950    0.25026291405890    0.01430775769371
H        -2.19601831671870    0.67598109496335    0.03288306430895
H         2.22701664771988   -0.55574159914916   -0.08713024828303
5
 energy: -7.214120616399 gnorm: 0.002107928301 xtb: 6.2.2 (9d81278992624c895f80dd42a50cac0aa55982e2)
C         0.00172717983244    0.00470536461279   -0.00251394850615
C         1.20484230433095   -0.37234295687280    0.04644764973689
C        -1.23556026046716    0.25556945675086    0.01041397818118
H        -2.19781205812501    0.67087516749630    0.03351553595207
H         2.22680383442879   -0.55880603198713   -0.08786421536393
5
 energy: -7.214144961176 gnorm: 0.002349665176 xtb: 6.2.2 (9d81278992624c895f80dd42a50cac0aa55982e2)
C         0.00161935696158    0.00623393416853    0.00308859937023
C         1.20572100942463   -0.36763924139629    0.04103868015236
C        -1.23334882441134    0.26336950347136    0.00700734733865
H        -2.20110359960050    0.66332600098599    0.03462552761024
H         2.22711305762563   -0.56528919722958   -0.08576115447141
5
 energy: -7.214177799380 gnorm: 0.003116573870 xtb: 6.2.2 (9d81278992624c895f80dd42a50cac0aa55982e2)
C         0.00092263622009    0.00637931932804    0.00799283397097
C         1.20749095998228   -0.36063631476360    0.02993831282200
C        -1.23076766315424    0.27450390335590    0.00529597616988
H        -2.20605536657368    0.65373216730233    0.03609272289900
H         2.22841043352555   -0.57397807522266   -0.07932084586178
5
 energy: -7.214219963695 gnorm: 0.003710417677 xtb: 6.2.2 (9d81278992624c895f80dd42a50cac0aa55982e2)
C        -0.00026870815525    0.00415660063024    0.01086982000945
C         1.21008222711559   -0.35187599239975    0.01067909906539
C        -1.22743775766004    0.29013550941818    0.00709276510364
H        -2.21283875822372    0.64178496715625    0.03773271333676
H         2.23046399692344   -0.58420008480489   -0.06637539751516
5
 energy: -7.214254344959 gnorm: 0.003044492683 xtb: 6.2.2 (9d81278992624c895f80dd42a50cac0aa55982e2)
C        -0.00115867203475    0.00022737370148    0.00928209144347
C         1.21200566190407   -0.34616465407460   -0.01006151537553
C        -1.22420453486077    0.30443195818678    0.01326432201712
H        -2.21813172727708    0.63208351153697    0.03851369088309
H         2.23149027226854   -0.59057718935060   -0.05099958896806
5
 energy: -7.214270929082 gnorm: 0.001231374898 xtb: 6.2.2 (9d81278992624c895f80dd42a50cac0aa55982e2)
C        -0.00081026098963   -0.00145133237763    0.00480539895512
C         1.21249103096568   -0.34555151180985   -0.02234534551399
C        -1.22201062763376    0.31168481342549    0.02035456464880
H        -2.22023738075940    0.62722164246656    0.03804279329671
H         2.23056823841713   -0.59190261170455   -0.04085841138655
5
 energy: -7.214273269637 gnorm: 0.000595561139 xtb: 6.2.2 (9d81278992624c895f80dd42a50cac0aa55982e2)
C         0.00027034547893    0.00028780057920    0.00082767582998
C         1.21269047724664   -0.34528467894168   -0.02742712747266
C        -1.22096818385147    0.31429939359295    0.02529062621682
H        -2.22131483813873    0.62420577700716    0.03734803100278
H         2.22932319926465   -0.59350729223760   -0.03604020557682
