 Entering Gaussian System
 *********************************************
 Gaussian 98:
 frequency output generated by the xtb code
 *********************************************
                         Standard orientation:
 --------------------------------------------------------------------
  Center     Atomic     Atomic              Coordinates (Angstroms)
  Number     Number      Type              X           Y           Z
 --------------------------------------------------------------------
    1          6             0        0.000270    0.000288    0.000828
    2          6             0        1.212689   -0.345291   -0.027431
    3          6             0       -1.220966    0.314306    0.025294
    4          1             0       -2.221311    0.624217    0.037355
    5          1             0        2.229320   -0.593519   -0.036047
 --------------------------------------------------------------------
     1 basis functions        1 primitive gaussians
     1 alpha electrons        1 beta electrons

 Harmonic frequencies (cm**-1), IR intensities (KM/Mole),
 Raman scattering activities (A**4/amu), Raman depolarization ratios,
 reduced masses (AMU), force constants (mDyne/A) and normal coordinates:
                      1                      2                      3
                        a                      a                      a 
 Frequencies --    94.6940               256.5148               269.3522
 Red. masses --     8.4019                 4.1334                 3.4363
 Frc consts  --     0.0000                 0.0000                 0.0000
 IR Inten    --     0.3711                 0.0977                 0.0219
 Raman Activ --     0.0000                 0.0000                 0.0000
 Depolar     --     0.0000                 0.0000                 0.0000
 Atom AN      X      Y      Z        X      Y      Z        X      Y      Z
   1   6     0.15   0.56   0.06     0.01   0.03  -0.23     0.01   0.02  -0.03
   2   6    -0.12  -0.40  -0.04     0.06   0.24   0.30     0.04   0.16  -0.26
   3   6    -0.10  -0.38  -0.04    -0.08  -0.27  -0.05    -0.05  -0.18   0.29
   4   1     0.12   0.37   0.04     0.15   0.49   0.30     0.10   0.33  -0.53
   5   1     0.10   0.41   0.04    -0.12  -0.47  -0.36    -0.08  -0.32   0.52
                      4                      5                      6
                        a                      a                      a 
 Frequencies --   415.9352               429.3922              1352.3786
 Red. masses --     5.3490                 4.9931                10.8752
 Frc consts  --     0.0000                 0.0000                 0.0000
 IR Inten    --     0.0370                 0.0500                 0.0097
 Raman Activ --     0.0000                 0.0000                 0.0000
 Depolar     --     0.0000                 0.0000                 0.0000
 Atom AN      X      Y      Z        X      Y      Z        X      Y      Z
   1   6     0.12   0.40   0.42     0.10   0.40  -0.40     0.00   0.01   0.00
   2   6    -0.03  -0.06  -0.09    -0.03  -0.12   0.07     0.64  -0.18  -0.01
   3   6    -0.03  -0.12  -0.12    -0.01  -0.06   0.10    -0.65   0.17   0.01
   4   1    -0.10  -0.33  -0.35    -0.13  -0.43   0.38    -0.22   0.06   0.00
   5   1    -0.11  -0.43  -0.41    -0.08  -0.33   0.42     0.22  -0.06  -0.00
                      7                      8                      9
                        a                      a                      a 
 Frequencies --  1901.8893              3391.8818              3404.5583
 Red. masses --    11.5125                 2.0966                 2.1360
 Frc consts  --     0.0000                 0.0000                 0.0000
 IR Inten    --     0.0118                 0.1685                 0.0685
 Raman Activ --     0.0000                 0.0000                 0.0000
 Depolar     --     0.0000                 0.0000                 0.0000
 Atom AN      X      Y      Z        X      Y      Z        X      Y      Z
   1   6     0.80  -0.22  -0.02    -0.04   0.01   0.00    -0.02   0.01   0.00
   2   6    -0.36   0.10   0.01     0.11  -0.03  -0.00     0.28  -0.07  -0.00
   3   6    -0.36   0.09   0.01     0.28  -0.08  -0.00    -0.12   0.04   0.00
   4   1    -0.15   0.04   0.00    -0.83   0.26   0.01     0.35  -0.11  -0.00
   5   1    -0.14   0.04   0.00    -0.36   0.09   0.00    -0.85   0.21   0.01
