5
 energy: -7.214273266543 gnorm: 0.000595578904 xtb: 6.2.2 (9d81278992624c895f80dd42a50cac0aa55982e2)
C         0.00027034987498    0.00028780060822    0.00082767438399
C         1.21268857357939   -0.34529107643778   -0.02743075792533
C        -1.22096644988026    0.31430583070263    0.02529433964367
H        -2.22131143939518    0.62421747295887    0.03735469540943
H         2.22931996582283   -0.59351902783890   -0.03604695151689
