[Molden Format]
[Title]
[Atoms] AU
C      1     6 -0.24022405988735E-02 -0.20521585643470E-01 -0.98337416751982E-01
N      2     7 -0.22057618880830E+01 -0.57347663394482E+00 -0.21733958658097E+00
N      3     7  0.21824330615710E+01  0.40807153052580E+00 -0.56470596086254E+00
H      4     1 -0.36961958295124E+01  0.33128566335444E+00  0.50423202467519E+00
H      5     1  0.37219268966332E+01 -0.14535708456601E+00  0.37615093951700E+00
[GTO]
           1 0
 s           4   1.0000000000000000     
   51.049363095579913      -0.16312063210127389     
   8.7911227406887544      -0.19911024581000730     
  0.70640422258929825       0.31882047753655751     
  0.26922813413411617       0.12706504184240380     
 p           4   1.0000000000000000     
   5.8263656140800002       0.73716451545209605     
   1.5106896018720002       0.68216371614850257     
  0.53256483288000001       0.35783053929253711     
  0.21202323690600003        5.3983030275847881E-002

           2 0
 s           4   1.0000000000000000     
   63.594024466941008      -0.19234388414721629     
   10.951417231523665      -0.23478107924953728     
  0.87999310257376984       0.37593753901700888     
  0.33538715296521110       0.14982889271862770     
 p           4   1.0000000000000000     
   7.2965040481495080       0.97658666315667420     
   1.8918745450712575       0.90372226730345739     
  0.66694432110824120       0.47404958461536373     
  0.26552202674130870        7.1516067715011844E-002

           3 0
 s           4   1.0000000000000000     
   63.594024466941008      -0.19234388414721629     
   10.951417231523665      -0.23478107924953728     
  0.87999310257376984       0.37593753901700888     
  0.33538715296521110       0.14982889271862770     
 p           4   1.0000000000000000     
   7.2965040481495080       0.97658666315667420     
   1.8918745450712575       0.90372226730345739     
  0.66694432110824120       0.47404958461536373     
  0.26552202674130870        7.1516067715011844E-002

           4 0
 s           3   1.0000000000000000     
   3.3702276975336001       0.27359110588908298     
  0.61389118221497996       0.26460540653860526     
  0.16614291148415999        8.2465947534082318E-002

           5 0
 s           3   1.0000000000000000     
   3.3702276975336001       0.27359110588908298     
  0.61389118221497996       0.26460540653860526     
  0.16614291148415999        8.2465947534082318E-002

[MO]
Sym=     1a
Ene=  -0.65606040459376802     
Spin= Alpha
Occup=     2.00000000
           1  0.54436968259631169     
           2  -7.2008570593687588E-004
           3  -5.3071235171401471E-003
           4  -2.5023780064492403E-002
           5  0.32768046336785350     
           6  0.17719839044478033     
           7   5.8867730013652517E-002
           8   1.6071397471230778E-002
           9  0.32778423631057885     
          10 -0.17519036111972663     
          11  -4.5002289446106375E-002
          12   4.9361700143536399E-002
          13   5.0383109465823347E-002
          14   5.0581720773124055E-002
Sym=     2a
Ene=  -0.63419203887803477     
Spin= Alpha
Occup=     2.00000000
           1  -1.0774444896999751E-004
           2  0.37902178131340869     
           3   6.0043321293734568E-002
           4  -2.4679366213138394E-002
           5 -0.43533758811931234     
           6  -7.0399829923771279E-002
           7  -6.1371040951393695E-002
           8  -4.0927298185677745E-002
           9  0.43499269146494318     
          10  -6.6986748884180478E-002
          11  -3.8518382242704520E-002
          12   6.6624594632253911E-002
          13 -0.11759394014903776     
          14  0.11765272304763608     
Sym=     3a
Ene=  -0.56164567444076252     
Spin= Alpha
Occup=     2.00000000
           1  0.19746273683687446     
           2  -5.0755842482968598E-003
           3  -3.2248722377379233E-002
           4 -0.15125039405928589     
           5 -0.26149992633919700     
           6  0.31273260053142504     
           7  -7.3345298425197727E-002
           8 -0.14859161428717751     
           9 -0.26113174491163549     
          10 -0.32110237531439667     
          11   1.0605115096007086E-002
          12 -0.14674301195652315     
          13 -0.31331413802792035     
          14 -0.31268736013004189     
Sym=     4a
Ene=  -0.53860171790950295     
Spin= Alpha
Occup=     2.00000000
           1  -5.5609948827412314E-006
           2  0.13962248557440782     
           3  0.38008766684758394     
           4  -8.6313907041552285E-002
           5  -7.3427102798076071E-004
           6 -0.32395283125483737     
           7  0.26149292977441657     
           8   1.1597568044648275E-002
           9   1.1692361822012130E-003
          10 -0.32760198902383730     
          11  0.23806166750570917     
          12  -9.9102510460045118E-002
          13  0.27033937167668759     
          14 -0.27074208381335158     
Sym=     5a
Ene=  -0.50864581141370913     
Spin= Alpha
Occup=     2.00000000
           1  0.16477101843757450     
           2   1.6328284849544437E-002
           3  0.11514207748308930     
           4  0.53304414207508577     
           5 -0.21721832182871945     
           6  0.12419892102036509     
           7   6.8981780415716759E-002
           8  0.39996887027418337     
           9 -0.21694253516469242     
          10  -9.9136507120718295E-002
          11  0.10382671902817557     
          12  0.39936518848427260     
          13  -3.8341903020960653E-002
          14  -3.8194572364320029E-002
Sym=     6a
Ene=  -0.48962824855164633     
Spin= Alpha
Occup=     2.00000000
           1   6.6258286604459855E-004
           2  0.30065791689095117     
           3 -0.39259841220117681     
           4   7.5281318961938543E-002
           5  0.14217534955921141     
           6 -0.26501736269439130     
           7 -0.34036584719907476     
           8  0.17130598276892026     
           9 -0.14376423044824135     
          10 -0.27154153955028926     
          11 -0.37632030176666692     
          12  -2.2111383837205342E-004
          13  0.18825049416596662     
          14 -0.18869429171992030     
Sym=     7a
Ene=  -0.40888586861099457     
Spin= Alpha
Occup=     2.00000000
           1  -7.0048059600586354E-002
           2   1.6011514042985420E-003
           3   1.4699020753480367E-002
           4   7.1227677947374307E-002
           5  0.25186379497280803     
           6  -4.9998065693911669E-003
           7 -0.63021994051432084     
           8  0.16669811221778041     
           9  0.25595302742071413     
          10   9.1210815197392114E-003
          11  0.64153008191016447     
          12 -0.11488070055293823     
          13 -0.11293542669851567     
          14 -0.11417262889248388     
Sym=     8a
Ene=  -0.40363620924268129     
Spin= Alpha
Occup=     2.00000000
           1  -4.5310446345678875E-004
           2   7.5315775504672028E-002
           3   5.8860007290312898E-002
           4  -1.4384405262699873E-002
           5  0.23357972641365021     
           6 -0.15135138716459723     
           7 -0.15883922174300460     
           8 -0.62797506471197051     
           9 -0.23048240688840257     
          10 -0.11175581198767461     
          11  0.12306547689329025     
          12  0.64413667611382142     
          13  -7.2074796630274010E-002
          14   7.0637407062301122E-002
Sym=     9a
Ene=  -0.18582674323419401     
Spin= Alpha
Occup=     0.00000000
           1  -2.2129882330573503E-003
           2 -0.15139909554975933     
           3  0.81556519833164831     
           4 -0.18612153280834789     
           5  0.19068723740642099     
           6  -6.5274303726543081E-002
           7 -0.46587864529811074     
           8  0.24966697646852962     
           9 -0.19792602780977239     
          10  -7.8831781522462896E-002
          11 -0.51759010586988641     
          12  -1.5473962551017536E-002
          13 -0.22426158882451047     
          14  0.23233580266424536     
Sym=    10a
Ene=  -0.18240831479136352     
Spin= Alpha
Occup=     0.00000000
           1   9.5419420858383910E-002
           2   2.3316099330035044E-002
           3  0.19334276914365053     
           4  0.82818995010668295     
           5  0.19280647451438426     
           6 -0.14663189935966348     
           7  -3.2952895278112351E-003
           8 -0.51211712995387570     
           9  0.18536463930496311     
          10  0.11284519719781902     
          11 -0.22823246937553127     
          12 -0.47715484684768933     
          13 -0.20816161271432804     
          14 -0.19967633726931225     
Sym=    11a
Ene=    7.5158583656490002E-002
Spin= Alpha
Occup=     0.00000000
           1 -0.58000707229982207     
           2  -2.0056679079572064E-003
           3  -2.0411002444338199E-002
           4  -9.3328526515694704E-002
           5  0.64554452439911369     
           6  -5.5798969038622394E-003
           7  0.36682926582156378     
           8  0.26426780869001515     
           9  0.64308084948329181     
          10   2.4447195174892127E-002
          11 -0.22669217808094144     
          12  0.38976391300914376     
          13 -0.65491505186242727     
          14 -0.65250485937328817     
Sym=    12a
Ene=   0.19104562377483128     
Spin= Alpha
Occup=     0.00000000
           1  -2.1541891998037651E-004
           2  0.20504047652755497     
           3 -0.22742191564596062     
           4   4.2692895025996297E-002
           5  0.52230592164822987     
           6 -0.41137817214342548     
           7  0.39624387182013754     
           8  0.21119466345401999     
           9 -0.52375773638483725     
          10 -0.42966607018016389     
          11  0.28220301093355354     
          12 -0.33199384828809692     
          13 -0.77767648314778925     
          14  0.78080020590622778     
Sym=    13a
Ene=   0.47094825624023112     
Spin= Alpha
Occup=     0.00000000
           1   1.0502141421530644     
           2  -8.0738209550774709E-003
           3  -6.0947032109057851E-002
           4 -0.28659742986371661     
           5 -0.15246392151865065     
           6 -0.80717319371026530     
           7   2.3018999247728461E-002
           8  0.17835734777938475     
           9 -0.15470045522605391     
          10  0.81598995647127281     
          11   4.1700575723949897E-002
          12  0.12302752957852389     
          13 -0.47782217543866412     
          14 -0.47571879127356137     
Sym=    14a
Ene=    1.1938003197320288     
Spin= Alpha
Occup=     0.00000000
           1  -4.4533255873249809E-004
           2   1.4495146587726822     
           3  0.34364610206694179     
           4 -0.11874569760373881     
           5  0.68617645422576201     
           6  0.78045404871650159     
           7  0.13324686726911972     
           8   4.9686448213447330E-002
           9 -0.68655121752946513     
          10  0.77309275763775653     
          11   9.1635762039708066E-002
          12 -0.14669110608657265     
          13  0.18271665756759217     
          14 -0.18140103157598386     
