5
 energy: -7.845697400797 gnorm: 0.191442979866 xtb: 6.2.2 (9d81278992624c895f80dd42a50cac0aa55982e2)
N         0.73686100000000   -0.24291600000000    0.55521500000000
C        -0.47607500000000   -0.14237200000000   -0.23809500000000
C         1.83015100000000    0.24059800000000   -0.26972400000000
H        -1.26864400000000   -0.76837800000000    0.22101100000000
H        -0.82229400000000    0.91306900000000   -0.26840700000000
5
 energy: -7.885063895072 gnorm: 0.124354914904 xtb: 6.2.2 (9d81278992624c895f80dd42a50cac0aa55982e2)
N         0.75550602780758   -0.31195747311350    0.43969507205178
C        -0.48757570078696   -0.12138850557097   -0.15979151800571
C         1.79545388955734    0.28168919595200   -0.19976450241171
H        -1.26558853170785   -0.76875767411191    0.25688297586491
H        -0.79779668487011    0.92041545684438   -0.33702202749927
5
 energy: -7.883362412726 gnorm: 0.264421607434 xtb: 6.2.2 (9d81278992624c895f80dd42a50cac0aa55982e2)
N         0.76634920564420   -0.26059709663425    0.32773574171682
C        -0.46445065688485   -0.05239320417011   -0.04832431444895
C         1.73013892580223    0.19984469474697   -0.13902219092926
H        -1.20363313423596   -0.80444222063248    0.22351454697685
H        -0.82840534032562    0.91758882668987   -0.36390378331546
5
 energy: -7.906977075800 gnorm: 0.042889510567 xtb: 6.2.2 (9d81278992624c895f80dd42a50cac0aa55982e2)
N         0.76011721575912   -0.36579123359667    0.28952969672025
C        -0.50496325414136   -0.05893424328454   -0.05048502614633
C         1.80536892975551    0.28246207343123   -0.11298892589801
H        -1.22850659770473   -0.77831183228625    0.28482965533656
H        -0.83201729366855    0.92057623573625   -0.41088540001247
5
 energy: -7.908247693197 gnorm: 0.049578725244 xtb: 6.2.2 (9d81278992624c895f80dd42a50cac0aa55982e2)
N         0.75708978342936   -0.43468542671750    0.23393234829308
C        -0.49559512230884   -0.06961213791129   -0.03326842036946
C         1.76311132660174    0.34614590774083   -0.07923166983182
H        -1.24002074945309   -0.74153654893742    0.32202954383260
H        -0.78458623826918    0.89968920582539   -0.44346180192441
5
 energy: -7.909805987171 gnorm: 0.017137269916 xtb: 6.2.2 (9d81278992624c895f80dd42a50cac0aa55982e2)
N         0.74316832810574   -0.39600858943638    0.21872724171779
C        -0.48479936898594   -0.05085972836615   -0.01777110055884
C         1.77425122309058    0.31107909991573   -0.07721430370547
H        -1.22986663643086   -0.75576530889950    0.30677949987271
H        -0.80275454577952    0.89155552678630   -0.43052133732619
5
 energy: -7.909934689788 gnorm: 0.012451605825 xtb: 6.2.2 (9d81278992624c895f80dd42a50cac0aa55982e2)
N         0.76058086352154   -0.39959092536867    0.21511700623399
C        -0.49038124150961   -0.03747952210829    0.00934081183311
C         1.78583819102088    0.30556940897825   -0.07625926198626
H        -1.23770978060937   -0.77083358767815    0.29775659088562
H        -0.81832903242344    0.90233562617686   -0.44595514696645
5
 energy: -7.910115136902 gnorm: 0.001886580007 xtb: 6.2.2 (9d81278992624c895f80dd42a50cac0aa55982e2)
N         0.75442723566809   -0.40388635802593    0.21266053766971
C        -0.48936372355858   -0.04455378239487   -0.00337969048686
C         1.78096300690156    0.31282793367496   -0.07333093600626
H        -1.23500190661146   -0.75886651194812    0.30501288336674
H        -0.81102561239961    0.89447971869397   -0.44096279454333
5
 energy: -7.910116485483 gnorm: 0.002597159850 xtb: 6.2.2 (9d81278992624c895f80dd42a50cac0aa55982e2)
N         0.75356073591871   -0.40437731990408    0.21514704961781
C        -0.48764225519691   -0.04326432000169   -0.00067168578682
C         1.77610336897980    0.31296734446381   -0.07551926906511
H        -1.23396022843141   -0.76032380148043    0.30312032830539
H        -0.80806262127018    0.89499909692239   -0.44207642307126
5
 energy: -7.910120648829 gnorm: 0.001218585060 xtb: 6.2.2 (9d81278992624c895f80dd42a50cac0aa55982e2)
N         0.75392259907835   -0.40416205980892    0.21406980471448
C        -0.48841424850371   -0.04327494132553   -0.00032679699209
C         1.77753462114613    0.31308157906752   -0.07492922779826
H        -1.23461461407502   -0.76009836550386    0.30323768589089
H        -0.80842935764576    0.89445478757078   -0.44205146581503
5
 energy: -7.910121480770 gnorm: 0.000466909319 xtb: 6.2.2 (9d81278992624c895f80dd42a50cac0aa55982e2)
N         0.75411230940897   -0.40401210115984    0.21384597196212
C        -0.48912929936980   -0.04310167014404    0.00007188529062
C         1.77862619736460    0.31306480825004   -0.07488100972713
H        -1.23483105507986   -0.75991007727703    0.30299063751500
H        -0.80877915232392    0.89396004033087   -0.44202748504061
