$hessian                                                                        
        0.5711727903   0.0950303649  -0.0228616798  -0.2686349791   0.0652717796
       -0.0392858842  -0.2505821115  -0.1769175111   0.0721278389  -0.0330534903
        0.0024408719  -0.0020931862  -0.0189022093   0.0141744947  -0.0078870887
        0.0950303649   0.3242245460  -0.1271693269   0.1202916708  -0.1053731143
        0.0413658875  -0.2282515864  -0.2105135044   0.0776612732  -0.0185137491
        0.0028553805  -0.0058752443   0.0314432998  -0.0111933078   0.0140174106
       -0.0228616798  -0.1271693269   0.0962939521  -0.0646214404   0.0392419644
       -0.0459681858   0.0956950933   0.0796669168  -0.0545197279   0.0075784974
       -0.0051206585  -0.0058152175  -0.0157904706   0.0133811042   0.0100091792
       -0.2686349791   0.1202916708  -0.0646214404   0.6051927233   0.0046921483
        0.0185309791  -0.1326948125  -0.0508388689   0.0179120844  -0.1524133185
       -0.1238622249   0.0520490837  -0.0514496132   0.0497172748  -0.0238707068
        0.0652717796  -0.1053731143   0.0392419644   0.0046921483   0.4498567307
       -0.1811842872  -0.0021626611   0.0264846966  -0.0093833862  -0.1217585422
       -0.1546150807   0.0604609218   0.0539572755  -0.2163532323   0.0908647872
       -0.0392858842   0.0413658875  -0.0459681858   0.0185309791  -0.1811842872
        0.1397082776  -0.0044172556  -0.0112859466   0.0112432313   0.0510118010
        0.0603371126  -0.0396761408  -0.0258396404   0.0907672337  -0.0653071824
       -0.2505821115  -0.2282515864   0.0956950933  -0.1326948125  -0.0021626611
       -0.0044172556   0.3889480111   0.2284773847  -0.0901111879  -0.0060125666
        0.0003423538  -0.0007274021   0.0003414795   0.0015945090  -0.0004392477
       -0.1769175111  -0.2105135044   0.0796669168  -0.0508388689   0.0264846966
       -0.0112859466   0.2284773847   0.1790123005  -0.0668458953   0.0016355753
        0.0018517332   0.0031802735  -0.0023565800   0.0031647740  -0.0047153483
        0.0721278389   0.0776612732  -0.0545197279   0.0179120844  -0.0093833862
        0.0112432313  -0.0901111879  -0.0668458953   0.0409107773  -0.0012892606
        0.0031585023   0.0071745051   0.0013605253  -0.0045904940  -0.0048087857
       -0.0330534903  -0.0185137491   0.0075784974  -0.1524133185  -0.1217585422
        0.0510118010  -0.0060125666   0.0016355753  -0.0012892606   0.1877654546
        0.1354275918  -0.0558775851   0.0037139208   0.0032091242  -0.0014234528
        0.0024408719   0.0028553805  -0.0051206585  -0.1238622249  -0.1546150807
        0.0603371126   0.0003423538   0.0018517332   0.0031585023   0.1354275918
        0.1669050756  -0.0666760381  -0.0143485926  -0.0169971086   0.0083010816
       -0.0020931862  -0.0058752443  -0.0058152175   0.0520490837   0.0604609218
       -0.0396761408  -0.0007274021   0.0031802735   0.0071745051  -0.0558775851
       -0.0666760381   0.0400216744   0.0066490897   0.0089100872  -0.0017048211
       -0.0189022093   0.0314432998  -0.0157904706  -0.0514496132   0.0539572755
       -0.0258396404   0.0003414795  -0.0023565800   0.0013605253   0.0037139208
       -0.0143485926   0.0066490897   0.0662964222  -0.0686954026   0.0336204960
        0.0141744947  -0.0111933078   0.0133811042   0.0497172748  -0.2163532323
        0.0907672337   0.0015945090   0.0031647740  -0.0045904940   0.0032091242
       -0.0169971086   0.0089100872  -0.0686954026   0.2413788747  -0.1084679311
       -0.0078870887   0.0140174106   0.0100091792  -0.0238707068   0.0908647872
       -0.0653071824  -0.0004392477  -0.0047153483  -0.0048087857  -0.0014234528
        0.0083010816  -0.0017048211   0.0336204960  -0.1084679311   0.0618116100
