 Entering Gaussian System
 *********************************************
 Gaussian 98:
 frequency output generated by the xtb code
 *********************************************
                         Standard orientation:
 --------------------------------------------------------------------
  Center     Atomic     Atomic              Coordinates (Angstroms)
  Number     Number      Type              X           Y           Z
 --------------------------------------------------------------------
    1          7             0        0.754111   -0.404016    0.213844
    2          6             0       -0.489130   -0.043099    0.000074
    3          6             0        1.778628    0.313055   -0.074888
    4          1             0       -1.234834   -0.759903    0.302996
    5          1             0       -0.808776    0.893964   -0.442026
 --------------------------------------------------------------------
     1 basis functions        1 primitive gaussians
     1 alpha electrons        1 beta electrons

 Harmonic frequencies (cm**-1), IR intensities (KM/Mole),
 Raman scattering activities (A**4/amu), Raman depolarization ratios,
 reduced masses (AMU), force constants (mDyne/A) and normal coordinates:
                      1                      2                      3
                        a                      a                      a 
 Frequencies --   475.4316               572.7865               691.0760
 Red. masses --     9.6638                 3.9806                 4.4806
 Frc consts  --     0.0000                 0.0000                 0.0000
 IR Inten    --     0.1924                 0.1804                 0.2169
 Raman Activ --     0.0000                 0.0000                 0.0000
 Depolar     --     0.0000                 0.0000                 0.0000
 Atom AN      X      Y      Z        X      Y      Z        X      Y      Z
   1   7    -0.12   0.48  -0.22     0.01  -0.16  -0.36    -0.01   0.09   0.20
   2   6    -0.28  -0.14   0.05    -0.00  -0.00  -0.00     0.02  -0.21  -0.46
   3   6     0.48  -0.28   0.15    -0.01   0.12   0.27     0.00  -0.02  -0.05
   4   1     0.14  -0.24   0.11    -0.03   0.34   0.73    -0.01   0.18   0.39
   5   1    -0.40  -0.13   0.05     0.01  -0.14  -0.31    -0.02   0.30   0.65
                      4                      5                      6
                        a                      a                      a 
 Frequencies --   995.5378              1248.9429              1336.4318
 Red. masses --     5.2760                 7.9174                 6.8508
 Frc consts  --     0.0000                 0.0000                 0.0000
 IR Inten    --     0.1486                 0.5323                 0.8834
 Raman Activ --     0.0000                 0.0000                 0.0000
 Depolar     --     0.0000                 0.0000                 0.0000
 Atom AN      X      Y      Z        X      Y      Z        X      Y      Z
   1   7    -0.04   0.21  -0.10     0.48  -0.27   0.14     0.38  -0.02   0.03
   2   6    -0.24  -0.39   0.17    -0.43   0.15  -0.09    -0.57   0.13  -0.08
   3   6     0.28   0.06  -0.02     0.16   0.10  -0.04    -0.06  -0.06   0.03
   4   1    -0.50   0.29  -0.15    -0.35   0.23  -0.12     0.31  -0.34   0.17
   5   1     0.51   0.08  -0.02    -0.48  -0.06   0.01     0.46   0.19  -0.07
                      7                      8                      9
                        a                      a                      a 
 Frequencies --  1467.1173              2973.8601              3083.5186
 Red. masses --    12.2976                 1.6554                 1.8408
 Frc consts  --     0.0000                 0.0000                 0.0000
 IR Inten    --     1.2738                 0.1818                 0.1118
 Raman Activ --     0.0000                 0.0000                 0.0000
 Depolar     --     0.0000                 0.0000                 0.0000
 Atom AN      X      Y      Z        X      Y      Z        X      Y      Z
   1   7     0.46   0.42  -0.18     0.01  -0.01   0.01    -0.01  -0.01   0.00
   2   6     0.12  -0.09   0.04     0.09  -0.20   0.10    -0.17  -0.20   0.08
   3   6    -0.56  -0.40   0.16    -0.00   0.00  -0.00     0.00   0.00  -0.00
   4   1    -0.14   0.14  -0.07    -0.06  -0.10   0.04     0.67   0.63  -0.27
   5   1    -0.06  -0.04   0.02    -0.27   0.83  -0.39    -0.05   0.07  -0.03
