5
 energy: -7.910121478931 gnorm: 0.000467557933 xtb: 6.2.2 (9d81278992624c895f80dd42a50cac0aa55982e2)
N         0.75411094045930   -0.40401567644879    0.21384404474608
C        -0.48912952478874   -0.04309910894290    0.00007366790058
C         1.77862757514626    0.31305536468964   -0.07488776470439
H        -1.23483397629102   -0.75990308289228    0.30299627417950
H        -0.80877601452056    0.89396350359957   -0.44202622212002
