 Entering Gaussian System
 *********************************************
 Gaussian 98:
 frequency output generated by the xtb code
 *********************************************
                         Standard orientation:
 --------------------------------------------------------------------
  Center     Atomic     Atomic              Coordinates (Angstroms)
  Number     Number      Type              X           Y           Z
 --------------------------------------------------------------------
    1          6             0       -1.193432    0.269129    0.404118
    2          7             0       -0.077948    0.014995    0.185527
    3          6             0        1.135576   -0.251338   -0.051158
    4          6             0        2.332614   -0.516203   -0.282549
    5          1             0       -2.196807    0.483419    0.607081
 --------------------------------------------------------------------
     1 basis functions        1 primitive gaussians
     1 alpha electrons        1 beta electrons

 Harmonic frequencies (cm**-1), IR intensities (KM/Mole),
 Raman scattering activities (A**4/amu), Raman depolarization ratios,
 reduced masses (AMU), force constants (mDyne/A) and normal coordinates:
                      1                      2                      3
                        a                      a                      a 
 Frequencies --   154.1531               198.1808               299.9500
 Red. masses --    12.6293                 8.0521                 6.0692
 Frc consts  --     0.0000                 0.0000                 0.0000
 IR Inten    --     0.3255                 0.1739                 0.1629
 Raman Activ --     0.0000                 0.0000                 0.0000
 Depolar     --     0.0000                 0.0000                 0.0000
 Atom AN      X      Y      Z        X      Y      Z        X      Y      Z
   1   6     0.15   0.47   0.19     0.04   0.27  -0.10     0.02   0.28  -0.20
   2   7    -0.16  -0.55  -0.21    -0.02  -0.21   0.16    -0.02  -0.24   0.16
   3   6    -0.10  -0.31  -0.14     0.10  -0.01   0.52     0.04   0.37  -0.20
   4   6     0.12   0.40   0.17    -0.07   0.05  -0.44    -0.03  -0.21   0.11
   5   1     0.03   0.10   0.04    -0.17  -0.30  -0.51    -0.05  -0.62   0.41
                      4                      5                      6
                        a                      a                      a 
 Frequencies --   498.0969               539.6904              1018.5205
 Red. masses --     9.6696                 8.2434                11.9548
 Frc consts  --     0.0000                 0.0000                 0.0000
 IR Inten    --     0.0509                 0.0390                 0.3818
 Raman Activ --     0.0000                 0.0000                 0.0000
 Depolar     --     0.0000                 0.0000                 0.0000
 Atom AN      X      Y      Z        X      Y      Z        X      Y      Z
   1   6     0.00  -0.06   0.07    -0.02  -0.01  -0.09     0.52  -0.12  -0.10
   2   7    -0.12  -0.46  -0.09    -0.08   0.04  -0.45     0.36  -0.08  -0.07
   3   6     0.16   0.64   0.08     0.10  -0.08   0.59    -0.34   0.07   0.07
   4   6    -0.06  -0.22  -0.03    -0.03   0.04  -0.19    -0.61   0.14   0.12
   5   1     0.09   0.49  -0.08     0.12   0.00   0.60     0.17  -0.04  -0.03
                      7                      8                      9
                        a                      a                      a 
 Frequencies --  2012.4989              2246.1616              3414.1671
 Red. masses --    11.8719                12.3941                 2.4850
 Frc consts  --     0.0000                 0.0000                 0.0000
 IR Inten    --     0.8384                 2.1750                 0.7282
 Raman Activ --     0.0000                 0.0000                 0.0000
 Depolar     --     0.0000                 0.0000                 0.0000
 Atom AN      X      Y      Z        X      Y      Z        X      Y      Z
   1   6    -0.25   0.06   0.05    -0.50   0.11   0.10     0.34  -0.07  -0.07
   2   7     0.12  -0.03  -0.02     0.72  -0.16  -0.14    -0.07   0.02   0.01
   3   6     0.71  -0.16  -0.14    -0.28   0.06   0.05    -0.01   0.00   0.00
   4   6    -0.57   0.12   0.11     0.08  -0.02  -0.02     0.01  -0.00  -0.00
   5   1    -0.12   0.03   0.02    -0.25   0.05   0.05    -0.89   0.19   0.18
