[Molden Format]
[Title]
[Atoms] AU
C      1     6 -0.22552589426288E+01  0.50857997735436E+00  0.76367253250398E+00
N      2     7 -0.14729973826314E+00  0.28335799953733E-01  0.35059430370813E+00
C      3     6  0.21459266041640E+01 -0.47495917416996E+00 -0.96673757783634E-01
C      4     6  0.44080015370093E+01 -0.97548169944510E+00 -0.53394058669381E+00
H      5     1 -0.41513637674484E+01  0.91352983240719E+00  0.11472169072862E+01
[GTO]
           1 0
 s           4   1.0000000000000000     
   51.049363095579913      -0.16312063210127389     
   8.7911227406887544      -0.19911024581000730     
  0.70640422258929825       0.31882047753655751     
  0.26922813413411617       0.12706504184240380     
 p           4   1.0000000000000000     
   5.8263656140800002       0.73716451545209605     
   1.5106896018720002       0.68216371614850257     
  0.53256483288000001       0.35783053929253711     
  0.21202323690600003        5.3983030275847881E-002

           2 0
 s           4   1.0000000000000000     
   63.594024466941008      -0.19234388414721629     
   10.951417231523665      -0.23478107924953728     
  0.87999310257376984       0.37593753901700888     
  0.33538715296521110       0.14982889271862770     
 p           4   1.0000000000000000     
   7.2965040481495080       0.97658666315667420     
   1.8918745450712575       0.90372226730345739     
  0.66694432110824120       0.47404958461536373     
  0.26552202674130870        7.1516067715011844E-002

           3 0
 s           4   1.0000000000000000     
   51.049363095579913      -0.16312063210127389     
   8.7911227406887544      -0.19911024581000730     
  0.70640422258929825       0.31882047753655751     
  0.26922813413411617       0.12706504184240380     
 p           4   1.0000000000000000     
   5.8263656140800002       0.73716451545209605     
   1.5106896018720002       0.68216371614850257     
  0.53256483288000001       0.35783053929253711     
  0.21202323690600003        5.3983030275847881E-002

           4 0
 s           4   1.0000000000000000     
   51.049363095579913      -0.16312063210127389     
   8.7911227406887544      -0.19911024581000730     
  0.70640422258929825       0.31882047753655751     
  0.26922813413411617       0.12706504184240380     
 p           4   1.0000000000000000     
   5.8263656140800002       0.73716451545209605     
   1.5106896018720002       0.68216371614850257     
  0.53256483288000001       0.35783053929253711     
  0.21202323690600003        5.3983030275847881E-002

           5 0
 s           3   1.0000000000000000     
   3.3702276975336001       0.27359110588908298     
  0.61389118221497996       0.26460540653860526     
  0.16614291148415999        8.2465947534082318E-002

[MO]
Sym=     1a
Ene=  -0.70213144361130664     
Spin= Alpha
Occup=     2.00000000
           1  0.37688264686969813     
           2  0.22297731537589952     
           3  -5.0598756919587047E-002
           4  -4.3641562323201287E-002
           5  0.59711213977543498     
           6 -0.12176129902639732     
           7   2.8478122190291163E-002
           8   2.3936127552418616E-002
           9  0.10492387830836168     
          10  -9.9708733845194200E-002
          11   2.2140518103589722E-002
          12   1.9487166263724740E-002
          13  -1.2263274590094946E-003
          14  -7.2060074641125864E-003
          15   1.6004282881131550E-003
          16   1.4028107650480173E-003
          17   4.1733164319489459E-002
Sym=     2a
Ene=  -0.64318857186399581     
Spin= Alpha
Occup=     2.00000000
           1 -0.36211739722659847     
           2   1.9132864015680148E-002
           3  -3.0478165191232670E-003
           4  -3.9214198616363194E-003
           5  0.25406544236301692     
           6  0.42312665275834765     
           7  -9.3824540053411828E-002
           8  -8.2737839025628451E-002
           9  0.39456949469476815     
          10 -0.13426802659197212     
          11   2.9358038864342243E-002
          12   2.6253388068451330E-002
          13  0.11672221347268399     
          14  -6.5890054125373423E-002
          15   1.4555581018666460E-002
          16   1.2780508954130226E-002
          17 -0.14321018269599475     
Sym=     3a
Ene=  -0.59640276601535336     
Spin= Alpha
Occup=     2.00000000
           1  0.25262172326281168     
           2 -0.16343601522062010     
           3   3.5461852504168320E-002
           4   3.3486294227649947E-002
           5 -0.11690839868934041     
           6  -2.8184746809385351E-002
           7   5.7980358249524562E-003
           8   7.3428658157633940E-003
           9  0.33847914569147813     
          10  0.26216747480887842     
          11  -5.8078007224558560E-002
          12  -5.0316068346501083E-002
          13  0.51114564790375439     
          14 -0.13061523798996238     
          15   2.8875279750329712E-002
          16   2.5316513794399167E-002
          17  0.23046341772570106     
Sym=     4a
Ene=  -0.57118389847413598     
Spin= Alpha
Occup=     2.00000000
           1 -0.21637096494388364     
           2  0.39148162287432581     
           3  -7.8306290984540922E-002
           4  -8.4241208923926211E-002
           5  -1.3136430711138449E-002
           6 -0.30329269963159722     
           7   8.2353471776067735E-002
           8   4.8590424596317336E-002
           9  -3.1091915207714139E-002
          10  0.25212058201184151     
          11  -5.0943735721306629E-002
          12  -5.2115539060663706E-002
          13  0.29401147141987899     
          14  -3.2612793617482025E-002
          15   8.1214224047627629E-003
          16   5.6593024467421682E-003
          17 -0.41759749470742924     
Sym=     5a
Ene=  -0.56312181932502481     
Spin= Alpha
Occup=     2.00000000
           1   1.0456504384150271E-003
           2  0.12128316484639380     
           3  0.26405987587956514     
           4  0.31602123222900003     
           5  -2.1582737168586302E-003
           6  0.20390628483940546     
           7  0.44456863701500798     
           8  0.53202962569628864     
           9  -2.7284318475318296E-004
          10   6.2787403628304039E-002
          11  0.14084232229013646     
          12  0.16843560459940951     
          13  -1.5196694266299317E-003
          14   1.3114638797893889E-002
          15   2.8479082929050322E-002
          16   3.4085723770423147E-002
          17   4.1023121732003855E-005
Sym=     6a
Ene=  -0.56311675743373890     
Spin= Alpha
Occup=     2.00000000
           1  -8.8545458385435594E-003
           2  -7.4112279922308498E-003
           3 -0.32795890432746444     
           4  0.27689904337513893     
           5   2.5629154456228080E-003
           6  -3.8467072105896595E-002
           7 -0.54629693885404684     
           8  0.47126752324667515     
           9  -2.1870266185873917E-003
          10  -3.2458139224159966E-003
          11 -0.17459415774247813     
          12  0.14718849205948029     
          13   6.7402289477784642E-003
          14  -2.3709525338772982E-003
          15  -3.5031312786596637E-002
          16   3.0182609639565639E-002
          17  -1.0738020338696593E-002
Sym=     7a
Ene=  -0.39936986252147350     
Spin= Alpha
Occup=     2.00000000
           1  -4.4281516166382760E-003
           2  -5.4224670657185420E-002
           3 -0.42721269943937978     
           4  0.20423888849000305     
           5   5.9600758375890207E-004
           6  -1.5853376171716723E-003
           7  -5.5839439471136064E-003
           8   2.9273291099018803E-003
           9   1.0999939143539691E-003
          10   7.0248134464704098E-002
          11  0.54678107567005185     
          12 -0.26164731565776689     
          13  -1.3389354558863155E-003
          14   5.7147833273597390E-002
          15  0.45384520468823764     
          16 -0.21683792002083876     
          17   1.8030821436195582E-003
Sym=     8a
Ene=  -0.39936707561205553     
Spin= Alpha
Occup=     2.00000000
           1  -2.8072624540127219E-004
           2 -0.12500203304349852     
           3 -0.18535819270248130     
           4 -0.42092014642202424     
           5   3.8521013518586240E-005
           6  -1.5162783556791613E-003
           7  -2.5552351049777941E-003
           8  -5.7504766082707827E-003
           9   2.0741744541090666E-005
          10  0.15698563496405399     
          11  0.23800494748713635     
          12  0.53951989215128249     
          13  -1.2031509781726570E-004
          14  0.13010733766404914     
          15  0.19747623560364633     
          16  0.44760862714354388     
          17   1.7540213440056195E-004
Sym=     9a
Ene=  -0.38081123190585120     
Spin= Alpha
Occup=     2.00000000
           1  -6.4227951075140136E-002
           2  -5.5115551015327516E-002
           3   1.2558208149397912E-002
           4   1.1874828099928496E-002
           5  0.15832401307519667     
           6  0.12737682799588176     
           7  -2.7870135832892703E-002
           8  -2.5634865097345218E-002
           9 -0.27973873323856174     
          10 -0.15187981068006257     
          11   3.4965054485066878E-002
          12   2.9219268804325502E-002
          13  0.64743725372001759     
          14  0.62969904754525685     
          15 -0.13795235339344228     
          16 -0.12187411064030791     
          17   5.9876590316173491E-002
Sym=    10a
Ene=  -0.27983744760584789     
Spin= Alpha
Occup=     0.00000000
           1  -7.9053349879602362E-003
           2  -8.5239371000110378E-002
           3 -0.67526488606289614     
           4  0.31655951871807153     
           5  -9.5396020983833736E-004
           6   6.7578577122242509E-002
           7  0.52559022793331112     
           8 -0.24675786206336514     
           9   2.7046506236087770E-004
          10   3.7410062100628957E-003
          11   3.0737385369752040E-002
          12  -1.4370012664284667E-002
          13   7.8943230908696020E-005
          14  -6.7071669992287336E-002
          15 -0.51512491723847231     
          16  0.24208924398465426     
          17   5.4579974224413120E-003
Sym=    11a
Ene=  -0.27982411452096856     
Spin= Alpha
Occup=     0.00000000
           1   5.4508411172733879E-004
           2 -0.19565945134266782     
           3 -0.28724928720209142     
           4 -0.66540156600279410     
           5  -1.4228804377345286E-003
           6  0.15165874155833256     
           7  0.22381582528923999     
           8  0.51826191041774383     
           9   6.7904199856809780E-004
          10   7.7697834529367052E-003
          11   1.3337718633710633E-002
          12   3.0533003281750275E-002
          13   4.8253042743551022E-004
          14 -0.14572301461129253     
          15 -0.22009819010462012     
          16 -0.50871536354936309     
          17  -5.3098676173590873E-004
Sym=    12a
Ene=   -9.8651391506134348E-002
Spin= Alpha
Occup=     0.00000000
           1  -6.3911730258753591E-003
           2  -2.2677661297471619E-002
           3 -0.26299359398849437     
           4  0.16658234487415569     
           5   7.5277887591971475E-004
           6   4.1817653558575724E-002
           7  0.42883539058109099     
           8 -0.27321597551707194     
           9  -2.3155488404681982E-003
          10  -6.7036039391727628E-002
          11 -0.70128600089822524     
          12  0.44635001904717497     
          13  -1.5496511855210423E-005
          14   5.6023565915591066E-002
          15  0.58438398149063076     
          16 -0.37199820290054741     
          17   6.2656470050916954E-003
Sym=    13a
Ene=   -9.8646272600991972E-002
Spin= Alpha
Occup=     0.00000000
           1   3.1076176732607753E-003
           2  -8.4659464229931383E-002
           3 -0.15559956740766084     
           4 -0.25711661907299704     
           5  -4.2669371613122172E-003
           6  0.13888142314454349     
           7  0.25409771823667232     
           8  0.42008541993146953     
           9   2.7660151061125599E-003
          10 -0.22677755733944105     
          11 -0.41539622599260506     
          12 -0.68668329226751923     
          13  -8.5607390437596772E-005
          14  0.18908975739472061     
          15  0.34614179283981511     
          16  0.57221840849108985     
          17  -2.2922081147102313E-003
Sym=    14a
Ene=    6.2307520972685005E-003
Spin= Alpha
Occup=     0.00000000
           1 -0.89244360252679189     
           2   8.0907094735514620E-002
           3  -8.3175249877231495E-003
           4  -2.3040469181163984E-002
           5  0.70336253439636320     
           6  -4.7044747151176541E-002
           7   1.0278893511099651E-002
           8   1.4745074762298353E-002
           9 -0.52609871926669727     
          10  0.29618340005601812     
          11  -6.4206764882766679E-002
          12  -6.2949560328635454E-002
          13   6.0585483147089676E-002
          14 -0.27879559916856189     
          15   6.0862544165514940E-002
          16   5.7363047041741305E-002
          17  0.78196372647550616     
Sym=    15a
Ene=   0.28111784762610886     
Spin= Alpha
Occup=     0.00000000
           1 -0.53240491973903714     
           2  0.57498869351993787     
           3 -0.12005646131693930     
           4 -0.11637876169499678     
           5 -0.55667408819719533     
           6 -0.47945036706874161     
           7  0.10073364744303047     
           8   9.4566777970584603E-002
           9  0.86339158428051843     
          10 -0.20748636831305522     
          11   4.6284955944957060E-002
          12   4.1058789720976971E-002
          13 -0.24315107323237983     
          14  0.45198226879421743     
          15 -0.10015803363008065     
          16  -8.7749117387675268E-002
          17  0.76821618361108934     
Sym=    16a
Ene=   0.94090593103658460     
Spin= Alpha
Occup=     0.00000000
           1  0.25595977193525027     
           2  0.86419673107104122     
           3 -0.19222376574793454     
           4 -0.17123922588902282     
           5 -0.83286795587483642     
           6  0.40383799259658831     
           7  -9.5192694163871674E-002
           8  -7.8475650073928302E-002
           9 -0.64360321140174526     
          10 -0.82667116293816401     
          11  0.18425759502962702     
          12  0.15991472986147276     
          13  0.69039624549169265     
          14 -0.73750968070113088     
          15  0.16279235129096892     
          16  0.14251183278586649     
          17  0.46054204468499721     
Sym=    17a
Ene=    1.4449638548213006     
Spin= Alpha
Occup=     0.00000000
           1  0.53669096130657246     
           2  0.92605208221247581     
           3 -0.20886189749087639     
           4 -0.18292094608497345     
           5 -0.14311604812651135     
           6   1.2211970632873375     
           7 -0.27418293603409760     
           8 -0.23862239559585430     
           9 -0.10017153375278672     
          10   1.1166006262704706     
          11 -0.24468488614527070     
          12 -0.21689969421822503     
          13 -0.57295995253217824     
          14  0.51755904683291676     
          15 -0.11514379040350799     
          16  -9.9780616070165806E-002
          17  0.37443271613316503     
