$hessian                                                                        
        0.5423607211   0.0005147519  -0.0000018941  -0.2691570627  -0.1644049361
        0.0000012265  -0.2732036584   0.1638901842   0.0000006676
        0.0005147519   0.4253999772  -0.0000007443  -0.2613053975  -0.2147164543
        0.0000012869   0.2607906456  -0.2106835230  -0.0000005426
       -0.0000018941  -0.0000007443   0.0000000000   0.0000013956   0.0000009486
       -0.0000000000   0.0000004985  -0.0000002044  -0.0000000000
       -0.2691570627  -0.2613053975   0.0000013956   0.3998819150   0.2137624131
       -0.0000017689  -0.1307248523   0.0475429844   0.0000003733
       -0.1644049361  -0.2147164543   0.0000009486   0.2137624131   0.1580569068
       -0.0000010220  -0.0493574771   0.0566595474   0.0000000734
        0.0000012265   0.0000012869  -0.0000000000  -0.0000017689  -0.0000010220
        0.0000000000   0.0000005425  -0.0000002648  -0.0000000000
       -0.2732036584   0.2607906456   0.0000004985  -0.1307248523  -0.0493574771
        0.0000005425   0.4039285107  -0.2114331685  -0.0000010410
        0.1638901842  -0.2106835230  -0.0000002044   0.0475429844   0.0566595474
       -0.0000002648  -0.2114331685   0.1540239755   0.0000004692
        0.0000006676  -0.0000005426  -0.0000000000   0.0000003733   0.0000000734
       -0.0000000000  -0.0000010410   0.0000004692   0.0000000000
