3
 energy: -10.714364208351 gnorm: 0.150630796735 xtb: 6.2.2 (9d81278992624c895f80dd42a50cac0aa55982e2)
N        -0.00257300000000    0.53852400000000    0.00000000000000
O        -1.08441900000000   -0.27445000000000    0.00000000000000
O         1.08699200000000   -0.26407400000000    0.00000000000000
3
 energy: -10.727802546120 gnorm: 0.055875816206 xtb: 6.2.2 (9d81278992624c895f80dd42a50cac0aa55982e2)
N        -0.00231251776845    0.48398331390631    0.00000000000000
O        -1.07154994603162   -0.24711750079576    0.00000000000000
O         1.07386246380007   -0.23686581311055    0.00000000000000
3
 energy: -10.729761203009 gnorm: 0.014968125428 xtb: 6.2.2 (9d81278992624c895f80dd42a50cac0aa55982e2)
N        -0.00212645954320    0.44492940617285    0.00000000000000
O        -1.07242403627004   -0.22759407963790    0.00000000000000
O         1.07455049581323   -0.21733532653495    0.00000000000000
3
 energy: -10.729931867226 gnorm: 0.001679100136 xtb: 6.2.2 (9d81278992624c895f80dd42a50cac0aa55982e2)
N        -0.00211383611058    0.44233037440500    0.00000000000000
O        -1.08236226551992   -0.22634209950163    0.00000000000000
O         1.08447610163050   -0.21598827490337    0.00000000000000
3
 energy: -10.729941220413 gnorm: 0.000829806279 xtb: 6.2.2 (9d81278992624c895f80dd42a50cac0aa55982e2)
N        -0.00209274541820    0.43779399653267    0.00000000000000
O        -1.08725492595136   -0.22409702246909    0.00000000000000
O         1.08934767136956   -0.21369697406358    0.00000000000000
3
 energy: -10.729942453325 gnorm: 0.000159729907 xtb: 6.2.2 (9d81278992624c895f80dd42a50cac0aa55982e2)
N        -0.00209651483994    0.43867408909225    0.00000000000000
O        -1.08596154843520   -0.22453105943134    0.00000000000000
O         1.08805806327513   -0.21414302966091    0.00000000000000
