[Molden Format]
[Title]
[Atoms] AU
N      1     7 -0.39574980043684E-02  0.82897383017345E+00 -0.14330028135088E-05
O      2     8 -0.20521719396147E+01 -0.42429142428861E+00  0.79039706657964E-05
O      3     8  0.20561294376191E+01 -0.40468240588484E+00 -0.64709678522876E-05
[GTO]
           1 0
 s           4   1.0000000000000000     
   63.594024466941008      -0.19234388414721629     
   10.951417231523665      -0.23478107924953728     
  0.87999310257376984       0.37593753901700888     
  0.33538715296521110       0.14982889271862770     
 p           4   1.0000000000000000     
   7.2965040481495080       0.97658666315667420     
   1.8918745450712575       0.90372226730345739     
  0.66694432110824120       0.47404958461536373     
  0.26552202674130870        7.1516067715011844E-002

           2 0
 s           4   1.0000000000000000     
   69.137961906196551      -0.20478756370077797     
   11.906129132707308      -0.24997023136827334     
  0.95670827744340703       0.40025880240639616     
  0.36462520496073686       0.15952206667693555     
 p           4   1.0000000000000000     
   8.2124193257781641        1.1321556799186829     
   2.1293576997098116        1.0476840782254817     
  0.75066448202360914       0.54956508217158984     
  0.29885246543283073        8.2908486592766617E-002

           3 0
 s           4   1.0000000000000000     
   69.137961906196551      -0.20478756370077797     
   11.906129132707308      -0.24997023136827334     
  0.95670827744340703       0.40025880240639616     
  0.36462520496073686       0.15952206667693555     
 p           4   1.0000000000000000     
   8.2124193257781641        1.1321556799186829     
   2.1293576997098116        1.0476840782254817     
  0.75066448202360914       0.54956508217158984     
  0.29885246543283073        8.2908486592766617E-002

[MO]
Sym=     1a
Ene=  -0.81178386356311238     
Spin= Alpha
Occup=     2.00000000
           1  0.43046952906394492     
           2   1.0524762957827855E-003
           3 -0.22072876881552961     
           4   3.7893522401478678E-007
           5  0.38188162840858692     
           6  0.21327151203931069     
           7   6.7556442453735877E-002
           8  -8.7626785874351913E-007
           9  0.38187891972290322     
          10 -0.21390606832581788     
          11   6.5516860541962915E-002
          12   6.4066845710166237E-007
Sym=     2a
Ene=  -0.78815271637204420     
Spin= Alpha
Occup=     2.00000000
           1   1.0608003264105882E-006
           2  0.38580519148017245     
           3   1.8408801382972133E-003
           4  -1.3336710523981043E-006
           5 -0.52296535609557548     
           6  -7.4298679739738777E-002
           7 -0.11275949177983365     
           8   4.7846780148817615E-007
           9  0.52296779628237899     
          10  -7.5373151370482672E-002
          11  0.11204536647229489     
          12   8.3838693897067209E-008
Sym=     3a
Ene=  -0.69182051804651157     
Spin= Alpha
Occup=     2.00000000
           1  0.40447367628509362     
           2  -4.0160057325631194E-004
           3   8.4183733960898455E-002
           4  -1.4203538353727136E-007
           5 -0.52470754752651705     
           6  0.29430180888220481     
           7  0.21950516077167997     
           8  -1.3882256377213286E-006
           9 -0.52470740651089731     
          10 -0.29638363230364229     
          11  0.21668545258937988     
          12   6.4462161870538427E-007
Sym=     4a
Ene=  -0.65404505126625767     
Spin= Alpha
Occup=     2.00000000
           1   1.2468601738061567E-008
           2  -1.9436513208646111E-006
           3  -9.7351423489118819E-007
           4 -0.57086698550232728     
           5   2.3471178854211548E-008
           6  -1.7573744019891425E-006
           7  -8.8341970807536751E-007
           8 -0.49113023716116955     
           9  -2.0855168797761555E-008
          10  -1.7303168963742525E-006
          11  -7.9042060798287828E-007
          12 -0.49112923750866844     
Sym=     5a
Ene=  -0.64548997420375998     
Spin= Alpha
Occup=     2.00000000
           1   2.4687792283827814E-006
           2 -0.35296603074062627     
           3  -1.6802173928237782E-003
           4   1.1702138365895697E-006
           5 -0.40048065545206363     
           6  0.31994185910567335     
           7  0.39186181504398282     
           8  -1.8382286780143719E-006
           9  0.40048370117576110     
          10  0.32367409761036092     
          11 -0.38878307492922770     
          12  -5.0156893505682867E-007
Sym=     6a
Ene=  -0.63729176247134922     
Spin= Alpha
Occup=     2.00000000
           1  0.28503608823658411     
           2  -2.3320784184088896E-003
           3  0.48925662796665853     
           4  -8.1693724698033092E-007
           5  0.16763939894320576     
           6 -0.32997056153461218     
           7  0.37094453898993746     
           8   5.2154475907039442E-007
           9  0.16763235575877472     
          10  0.32640792517585482     
          11  0.37408460320798020     
          12  -1.7665924025854117E-006
Sym=     7a
Ene=  -0.55035356662149759     
Spin= Alpha
Occup=     1.99999587
           1  -1.7498014617987718E-009
           2   2.4431616974071715E-009
           3  -6.3911042106310792E-009
           4   1.9117126650440513E-007
           5   2.4884105743805717E-008
           6   2.4728805592481734E-006
           7   1.2404046755912613E-006
           8  0.71170009001465107     
           9   1.2641831224110047E-008
          10  -2.4818242226952481E-006
          11  -1.2403844399154035E-006
          12 -0.71170179301949721     
Sym=     8a
Ene=  -0.52679687948044918     
Spin= Alpha
Occup=     1.00000413
           1   2.8235204160001175E-007
           2   7.4168885175860816E-002
           3   3.5454115730976086E-004
           4  -2.6558602432344060E-007
           5   1.3415266517619478E-003
           6 -0.54160360754843928     
           7  0.47751161589491692     
           8   1.0505520901753235E-006
           9  -1.3412673930341141E-003
          10 -0.53702124337271318     
          11 -0.48266143035945119     
          12   2.7163230292676947E-006
Sym=     9a
Ene=  -0.44924399206498222     
Spin= Alpha
Occup=     1.00000000
           1 -0.49321743000830226     
           2   2.8800137221330077E-003
           3 -0.60343533573833608     
           4   1.0532898210745469E-006
           5  -8.8736943824921435E-003
           6  -4.6316856830255909E-002
           7  0.54674087260603510     
           8  -7.9850553752295076E-007
           9  -8.8733281433965444E-003
          10   4.1094004024444783E-002
          11  0.54715718265675906     
          12  -1.0983517368284456E-006
Sym=    10a
Ene=  -0.36706038809379865     
Spin= Alpha
Occup=     1.00000000
           1   3.5320388042057326E-009
           2   2.9845701878600096E-006
           3   1.4978923882128674E-006
           4  0.85510842506192875     
           5  -6.4290277123079154E-009
           6  -1.8441676638840093E-006
           7  -9.2648743092902275E-007
           8 -0.52974221137282462     
           9   4.4204463351869133E-009
          10  -1.8489737311890858E-006
          11  -9.3509776595176910E-007
          12 -0.52974071576123383     
Sym=    11a
Ene=    5.4563546917118066E-002
Spin= Alpha
Occup=     0.00000000
           1  0.85613963208356314     
           2   3.5501298873779090E-003
           3 -0.74174483452571438     
           4   1.2830206222399461E-006
           5 -0.38400797190031971     
           6 -0.60982723444143561     
           7 -0.19469929243939246     
           8   2.4663181706912713E-006
           9 -0.38401507845500926     
          10  0.61166548102166607     
          11 -0.18887658577596159     
          12  -1.8051094679381360E-006
Sym=    12a
Ene=   0.17203187833616521     
Spin= Alpha
Occup=     0.00000000
           1  -8.5590956452847599E-006
           2   1.1088371735490057     
           3   5.2993990969862140E-003
           4  -3.8801676441748781E-006
           5  0.45058237566855175     
           6  0.45633118558039154     
           7  0.42920500792393540     
           8  -2.3415964123028671E-006
           9 -0.45057450571768215     
          10  0.46039676576141997     
          11 -0.42482504425102585     
          12  -8.6366383157032588E-007
