 Entering Gaussian System
 *********************************************
 Gaussian 98:
 frequency output generated by the xtb code
 *********************************************
                         Standard orientation:
 --------------------------------------------------------------------
  Center     Atomic     Atomic              Coordinates (Angstroms)
  Number     Number      Type              X           Y           Z
 --------------------------------------------------------------------
    1          7             0       -0.002094    0.438674   -0.000001
    2          8             0       -1.085963   -0.224525    0.000004
    3          8             0        1.088057   -0.214149   -0.000003
 --------------------------------------------------------------------
     1 basis functions        1 primitive gaussians
     1 alpha electrons        1 beta electrons

 Harmonic frequencies (cm**-1), IR intensities (KM/Mole),
 Raman scattering activities (A**4/amu), Raman depolarization ratios,
 reduced masses (AMU), force constants (mDyne/A) and normal coordinates:
                      1                      2                      3
                        a                      a                      a 
 Frequencies --   472.6874              1278.7530              1345.4032
 Red. masses --    15.4261                14.7525                15.1867
 Frc consts  --     0.0000                 0.0000                 0.0000
 IR Inten    --     0.4226                 0.5294                 0.0426
 Raman Activ --     0.0000                 0.0000                 0.0000
 Depolar     --     0.0000                 0.0000                 0.0000
 Atom AN      X      Y      Z        X      Y      Z        X      Y      Z
   1   7    -0.00   0.54  -0.00     0.79   0.00  -0.00     0.00  -0.64   0.00
   2   8     0.54  -0.25  -0.00    -0.37  -0.23   0.00     0.45   0.30  -0.00
   3   8    -0.54  -0.25   0.00    -0.37   0.22   0.00    -0.46   0.30   0.00
