5
 energy: -10.883755693546 gnorm: 0.449658149045 xtb: 6.2.2 (9d81278992624c895f80dd42a50cac0aa55982e2)
C        -0.27923000000000    0.00790700000000   -0.00608000000000
O         0.93551800000000    0.03346900000000   -0.64913200000000
O         0.90332300000000   -0.08548100000000    0.68861800000000
H        -0.80576500000000   -0.96356100000000   -0.10498300000000
H        -0.75384600000000    1.00766700000000    0.07157700000000
5
 energy: -10.969675873243 gnorm: 0.263396090996 xtb: 6.2.2 (9d81278992624c895f80dd42a50cac0aa55982e2)
C        -0.28679049084429    0.00812125828373   -0.00624279055250
O         0.96311759945494    0.04060075757955   -0.73684157994623
O         0.92666609413822   -0.09404676304179    0.77741818874389
H        -0.82670705951950   -0.93429254762591   -0.10287917152587
H        -0.77628614322936    0.97961829480442    0.06854535328071
5
 energy: -11.031137567029 gnorm: 0.197945028994 xtb: 6.2.2 (9d81278992624c895f80dd42a50cac0aa55982e2)
C        -0.24036295688819    0.00680100839903   -0.00516015336523
O         0.93348613554807    0.05600912925751   -0.90008073610040
O         0.88930100308871   -0.10755396584714    0.93922751967899
H        -0.81556962115769   -0.90196617008316   -0.09978069471690
H        -0.76685456059089    0.94671099827376    0.06579406450353
5
 energy: -11.054453990496 gnorm: 0.178226668077 xtb: 6.2.2 (9d81278992624c895f80dd42a50cac0aa55982e2)
C        -0.19060917555078    0.00539573926968   -0.00411580865376
O         0.89539883178730    0.06277807368843   -0.96444627578727
O         0.84813245056209   -0.11208040363343    1.00188703827130
H        -0.80047929539119   -0.88949303789503   -0.09829475669384
H        -0.75244281140741    0.93340062857034    0.06496980286357
5
 energy: -11.079985796701 gnorm: 0.109888363455 xtb: 6.2.2 (9d81278992624c895f80dd42a50cac0aa55982e2)
C        -0.09645861589757    0.00273241153481   -0.00209635729612
O         0.82478605165511    0.07099316205861   -1.03539999925836
O         0.77419041006473   -0.11620729320599    1.06973833669124
H        -0.77468465889774   -0.86773003231164   -0.09574036112903
H        -0.72783318692452    0.91021275192422    0.06349838099227
5
 energy: -11.087772294420 gnorm: 0.043558956610 xtb: 6.2.2 (9d81278992624c895f80dd42a50cac0aa55982e2)
C        -0.03419003235860    0.00096938555083   -0.00074398719403
O         0.78116999404048    0.07395231017425   -1.05560113192914
O         0.72968214203934   -0.11667457276525    1.08805387493890
H        -0.76131005815758   -0.85114298263495   -0.09395519116601
H        -0.71535204556364    0.89289685967512    0.06224643535028
5
 energy: -11.089008840017 gnorm: 0.016466616344 xtb: 6.2.2 (9d81278992624c895f80dd42a50cac0aa55982e2)
C        -0.01828345721063    0.00051851524515   -0.00039462629438
O         0.77642571156944    0.07315698903456   -1.04531281175648
O         0.72545822372125   -0.11562601869576    1.07757786160257
H        -0.76462522682478   -0.84519872238205   -0.09351181047233
H        -0.71897525125528    0.88715023679810    0.06164138692062
5
 energy: -11.089548716901 gnorm: 0.006008464848 xtb: 6.2.2 (9d81278992624c895f80dd42a50cac0aa55982e2)
C        -0.01610973751848    0.00045649163494   -0.00034518925981
O         0.78475091339678    0.07133171721350   -1.02736931810198
O         0.73465114326559   -0.11429635085798    1.06001435845240
H        -0.77438827642070   -0.84176806553271   -0.09344356958626
H        -0.72890404272319    0.88427720754225    0.06114371849566
5
 energy: -11.089669648243 gnorm: 0.002492720760 xtb: 6.2.2 (9d81278992624c895f80dd42a50cac0aa55982e2)
C        -0.02003825383921    0.00056733960039   -0.00042930966950
O         0.79367251872539    0.07016056550206   -1.01691139731341
O         0.74406985135606   -0.11364363167588    1.04995134530999
H        -0.78155898748453   -0.84021667305035   -0.09347802257876
H        -0.73614512875771    0.88313339962378    0.06086738425169
5
 energy: -11.089674901278 gnorm: 0.000559557338 xtb: 6.2.2 (9d81278992624c895f80dd42a50cac0aa55982e2)
C        -0.02100911730656    0.00059479091039   -0.00045154976721
O         0.79514447642927    0.07007501745085   -1.01638866368184
O         0.74556334902072   -0.11364166307178    1.04949189128823
H        -0.78253452757441   -0.83935534716650   -0.09342395604196
H        -0.73716418056902    0.88232820187704    0.06077227820278
5
 energy: -11.089675702365 gnorm: 0.000312787899 xtb: 6.2.2 (9d81278992624c895f80dd42a50cac0aa55982e2)
C        -0.02085711989231    0.00059027299632   -0.00044797854170
O         0.79554662373673    0.07008165200857   -1.01658060301639
O         0.74595550050204   -0.11367047472890    1.04970064334731
H        -0.78297728212388   -0.83818121816571   -0.09333024157593
H        -0.73766772222258    0.88118076788972    0.06065817978671
