 Entering Gaussian System
 *********************************************
 Gaussian 98:
 frequency output generated by the xtb code
 *********************************************
                         Standard orientation:
 --------------------------------------------------------------------
  Center     Atomic     Atomic              Coordinates (Angstroms)
  Number     Number      Type              X           Y           Z
 --------------------------------------------------------------------
    1          6             0       -0.020857    0.000590   -0.000448
    2          8             0        0.795543    0.070076   -1.016584
    3          8             0        0.745959   -0.113673    1.049698
    4          1             0       -0.782982   -0.838177   -0.093326
    5          1             0       -0.737663    0.881185    0.060659
 --------------------------------------------------------------------
     1 basis functions        1 primitive gaussians
     1 alpha electrons        1 beta electrons

 Harmonic frequencies (cm**-1), IR intensities (KM/Mole),
 Raman scattering activities (A**4/amu), Raman depolarization ratios,
 reduced masses (AMU), force constants (mDyne/A) and normal coordinates:
                      1                      2                      3
                        a                      a                      a 
 Frequencies --   515.4690               734.3523              1013.0796
 Red. masses --    14.9750                 6.1036                 1.6347
 Frc consts  --     0.0000                 0.0000                 0.0000
 IR Inten    --     0.5440                 0.0241                 0.0018
 Raman Activ --     0.0000                 0.0000                 0.0000
 Depolar     --     0.0000                 0.0000                 0.0000
 Atom AN      X      Y      Z        X      Y      Z        X      Y      Z
   1   6     0.43  -0.01   0.01     0.02   0.60   0.05     0.00   0.00  -0.00
   2   8    -0.20   0.06  -0.60    -0.00  -0.19  -0.02     0.00   0.14   0.01
   3   8    -0.23  -0.05   0.59    -0.01  -0.19  -0.02    -0.00  -0.14  -0.01
   4   1     0.10   0.01   0.00     0.44  -0.30  -0.02    -0.02  -0.06   0.69
   5   1     0.10  -0.01   0.00    -0.45  -0.27  -0.04     0.02   0.06  -0.69
                      4                      5                      6
                        a                      a                      a 
 Frequencies --  1155.2028              1180.3892              1212.2914
 Red. masses --     2.6957                 6.5989                13.4131
 Frc consts  --     0.0000                 0.0000                 0.0000
 IR Inten    --     0.0393                 0.3309                 0.9685
 Raman Activ --     0.0000                 0.0000                 0.0000
 Depolar     --     0.0000                 0.0000                 0.0000
 Atom AN      X      Y      Z        X      Y      Z        X      Y      Z
   1   6    -0.01  -0.03   0.31    -0.57   0.02  -0.06    -0.06  -0.07   0.75
   2   8    -0.14   0.00   0.03     0.13   0.01  -0.18     0.31   0.02  -0.36
   3   8     0.14  -0.01   0.03     0.16  -0.02   0.23    -0.26   0.04  -0.33
   4   1     0.01   0.06  -0.65     0.38  -0.35  -0.03     0.01  -0.03   0.10
   5   1     0.01   0.06  -0.65     0.40   0.33   0.03     0.01   0.01   0.10
                      7                      8                      9
                        a                      a                      a 
 Frequencies --  1285.7399              2356.8757              2487.7820
 Red. masses --     8.8134                 1.6875                 1.3470
 Frc consts  --     0.0000                 0.0000                 0.0000
 IR Inten    --     0.6974                 0.0538                 0.1619
 Raman Activ --     0.0000                 0.0000                 0.0000
 Depolar     --     0.0000                 0.0000                 0.0000
 Atom AN      X      Y      Z        X      Y      Z        X      Y      Z
   1   6     0.44  -0.01   0.03    -0.01  -0.25  -0.02     0.16  -0.00   0.00
   2   8    -0.29  -0.02   0.31    -0.00  -0.02  -0.00     0.03   0.00  -0.03
   3   8    -0.29   0.04  -0.34    -0.00  -0.02  -0.00     0.03  -0.00   0.03
   4   1     0.39  -0.25  -0.01     0.49   0.47   0.05    -0.41  -0.56  -0.06
   5   1     0.40   0.23   0.03    -0.47   0.50   0.03    -0.38   0.58   0.04
