[Molden Format]
[Title]
[Atoms] AU
C      1     6 -0.39414237801874E-01  0.11156590932807E-02 -0.84642104015677E-03
O      2     8  0.15033590863716E+01  0.13242389192203E+00 -0.19210642239347E+01
O      3     8  0.14096572658221E+01 -0.21480996459860E+00  0.19836419990077E+01
H      4     1 -0.14796213967976E+01 -0.15839253587423E+01 -0.17636065005271E+00
H      5     1 -0.13939807175843E+01  0.16651976620516E+01  0.11462929601659E+00
[GTO]
           1 0
 s           4   1.0000000000000000     
   51.049363095579913      -0.16312063210127389     
   8.7911227406887544      -0.19911024581000730     
  0.70640422258929825       0.31882047753655751     
  0.26922813413411617       0.12706504184240380     
 p           4   1.0000000000000000     
   5.8263656140800002       0.73716451545209605     
   1.5106896018720002       0.68216371614850257     
  0.53256483288000001       0.35783053929253711     
  0.21202323690600003        5.3983030275847881E-002

           2 0
 s           4   1.0000000000000000     
   69.137961906196551      -0.20478756370077797     
   11.906129132707308      -0.24997023136827334     
  0.95670827744340703       0.40025880240639616     
  0.36462520496073686       0.15952206667693555     
 p           4   1.0000000000000000     
   8.2124193257781641        1.1321556799186829     
   2.1293576997098116        1.0476840782254817     
  0.75066448202360914       0.54956508217158984     
  0.29885246543283073        8.2908486592766617E-002

           3 0
 s           4   1.0000000000000000     
   69.137961906196551      -0.20478756370077797     
   11.906129132707308      -0.24997023136827334     
  0.95670827744340703       0.40025880240639616     
  0.36462520496073686       0.15952206667693555     
 p           4   1.0000000000000000     
   8.2124193257781641        1.1321556799186829     
   2.1293576997098116        1.0476840782254817     
  0.75066448202360914       0.54956508217158984     
  0.29885246543283073        8.2908486592766617E-002

           4 0
 s           3   1.0000000000000000     
   3.3702276975336001       0.27359110588908298     
  0.61389118221497996       0.26460540653860526     
  0.16614291148415999        8.2465947534082318E-002

           5 0
 s           3   1.0000000000000000     
   3.3702276975336001       0.27359110588908298     
  0.61389118221497996       0.26460540653860526     
  0.16614291148415999        8.2465947534082318E-002

[MO]
Sym=     1a
Ene=  -0.76407481760530593     
Spin= Alpha
Occup=     2.00000000
           1  0.42128629456634925     
           2  0.17287865054289520     
           3  -4.8895046905488970E-003
           4   3.7137720899942609E-003
           5  0.39334749032232980     
           6  -9.9528833171765030E-002
           7  -1.2006821334288346E-002
           8  0.16335849584864806     
           9  0.39334741910669629     
          10  -9.1590139879339325E-002
          11   1.7412196349840731E-002
          12 -0.16746410483408841     
          13   5.1831507133253372E-002
          14   5.1831460596086253E-002
Sym=     2a
Ene=  -0.73287565285399336     
Spin= Alpha
Occup=     2.00000000
           1   7.1156603889441831E-008
           2  -8.2869828618428263E-003
           3  -3.0709336462459359E-002
           4  0.34533160164170845     
           5 -0.55601421272670881     
           6  0.10265909007925554     
           7  -1.8553957785679941E-003
           8  -9.4981157444952013E-003
           9  0.55601408960199750     
          10 -0.10209786728738689     
          11   3.9357440489353052E-003
          12  -1.3896696686332909E-002
          13  -2.7964790501608874E-009
          14  -6.8694538050711292E-009
Sym=     3a
Ene=  -0.66744663071773169     
Spin= Alpha
Occup=     2.00000000
           1 -0.35513440482557279     
           2  0.28307923938842766     
           3  -8.0060194247839091E-003
           4   6.0813163564732032E-003
           5  0.39315230233946785     
           6  0.22546870976184752     
           7   3.0166847431637202E-003
           8 -0.10004026125890829     
           9  0.39315219468673906     
          10  0.22043714321859004     
          11  -1.5627750698104858E-002
          12  0.10961919355035274     
          13 -0.23427163625124287     
          14 -0.23427164518689131     
Sym=     4a
Ene=  -0.62268546971000960     
Spin= Alpha
Occup=     2.00000000
           1   2.3517958320990253E-007
           2   1.3884713079430726E-002
           3  0.52676678027193269     
           4   4.7177038777216733E-002
           5  -9.5049941327913723E-008
           6   1.0139422646755493E-002
           7  0.38467447016937706     
           8   3.4451273325650927E-002
           9  -6.3051415077181162E-008
          10   1.0139351650821575E-002
          11  0.38467442406372881     
          12   3.4451249848070832E-002
          13 -0.22942203839933187     
          14  0.22942198950442488     
Sym=     5a
Ene=  -0.60777994622074627     
Spin= Alpha
Occup=     2.00000000
           1  -1.5730414341758356E-002
           2 -0.36608749676468028     
           3   1.0353807169495383E-002
           4  -7.8640273337535621E-003
           5  0.34845934682380436     
           6  -1.6262527230941834E-002
           7   4.1644685365392807E-002
           8 -0.46020834763063001     
           9  0.34845885003921817     
          10  -3.8322424018379708E-002
          11  -4.0100951303177104E-002
          12  0.45903534726619599     
          13  0.16471811558839219     
          14  0.16471827147634271     
Sym=     6a
Ene=  -0.58786192393846848     
Spin= Alpha
Occup=     2.00000000
           1  -1.4113341519795940E-007
           2   8.8362087439607159E-003
           3   3.2745098315218435E-002
           4 -0.36822390475173461     
           5 -0.34978305566463697     
           6 -0.46579635976799244     
           7  -9.9140590456367611E-003
           8  0.24778838453754065     
           9  0.34978387871438532     
          10  0.45342995251245327     
          11  -3.5912189222459236E-002
          12  0.26753604488080318     
          13   2.9143660122289194E-008
          14   6.5814471938735140E-008
Sym=     7a
Ene=  -0.49455760140307947     
Spin= Alpha
Occup=     2.00000000
           1   2.8037204810351367E-010
           2   3.4311768970469367E-008
           3   1.5840082846305317E-007
           4   2.1575583692977536E-008
           5   9.3412092298831231E-008
           6  -1.8720686882128260E-002
           7 -0.71022540703987502     
           8  -6.3607518536898638E-002
           9  -1.5165861118417473E-008
          10   1.8720526467881991E-002
          11  0.71022503889359567     
          12   6.3607465496612281E-002
          13  -1.2982380341724942E-007
          14   6.2915829297923425E-008
Sym=     8a
Ene=  -0.48701255918154629     
Spin= Alpha
Occup=     1.99999985
           1  -2.9550138194232228E-002
           2  0.18174442284111653     
           3  -5.1402703787737907E-003
           4   3.9043638610058678E-003
           5  -1.6161719995855004E-002
           6 -0.61413790503777999     
           7   3.3508034368503907E-002
           8 -0.19339110377207974     
           9  -1.6161959378903124E-002
          10 -0.62278129549851258     
          11   1.4754688513282446E-003
          12  0.16681848114057721     
          13 -0.25653094231546081     
          14 -0.25653131175022414     
Sym=     9a
Ene=  -0.45714750178635050     
Spin= Alpha
Occup=     1.00000015
           1  -3.5251425556520567E-008
           2   2.3021914030898201E-003
           3   8.5309837382407903E-003
           4  -9.5932669490206901E-002
           5   2.6001913807223703E-002
           6  0.36441945834497036     
           7  -6.5980844986903806E-002
           8  0.62947212131787600     
           9  -2.6001975542452819E-002
          10 -0.39424052042752378     
          11  -4.4523966593375999E-002
          12  0.61317481707943977     
          13  -2.0260478250581495E-007
          14  -2.4892952336769394E-007
Sym=    10a
Ene=  -0.43387656140755604     
Spin= Alpha
Occup=     1.00000000
           1   9.5454977446163090E-008
           2   7.5166478132586093E-003
           3  0.28516883447785046     
           4   2.5539582847758101E-002
           5   1.0322320576721519E-007
           6  -1.4773071430716779E-002
           7 -0.56045979356986952     
           8  -5.0194432799537315E-002
           9   5.0660140847758289E-008
          10  -1.4773132144890802E-002
          11 -0.56046024166693376     
          12  -5.0194618370639911E-002
          13 -0.42998002890110087     
          14  0.42997944292796803     
Sym=    11a
Ene=    6.5033737186617382E-002
Spin= Alpha
Occup=     0.00000000
           1 -0.98043995598048150     
           2  0.65689864877546034     
           3  -1.8561506775504642E-002
           4   1.4112821337043169E-002
           5   1.1294681905672878E-002
           6 -0.17620749794993479     
           7   1.0075357006729783E-003
           8   4.0564797335472788E-002
           9   1.1294964459993404E-002
          10 -0.17408043302519030     
          11   8.8914105453155954E-003
          12  -4.8090652726653145E-002
          13  0.73296934360695387     
          14  0.73294457336197338     
Sym=    12a
Ene=    7.8454656338375187E-002
Spin= Alpha
Occup=     0.00000000
           1  -1.7153794426882412E-005
           2  -2.7244933045488331E-002
           3  -1.0340096135507431     
           4  -9.2605161003495071E-002
           5   6.8436444642749727E-007
           6   6.3940271618244462E-003
           7  0.24270127756959087     
           8   2.1737516327657976E-002
           9   6.6342832057910097E-007
          10   6.3941279564928488E-003
          11  0.24270167585889862     
          12   2.1734821014170149E-002
          13 -0.77441969411823441     
          14  0.77444342099019226     
Sym=    13a
Ene=   0.19205969305643231     
Spin= Alpha
Occup=     0.00000000
           1   1.4342663674179708E-006
           2   2.6515623783504447E-002
           3   9.8255213213037082E-002
           4  -1.1048979218885158     
           5 -0.46327291049579933     
           6  0.48994818242415139     
           7   1.8998437441524661E-002
           8 -0.35633110204719870     
           9  0.46327153222014533     
          10 -0.47234948850243486     
          11   4.6214621753540026E-002
          12 -0.37700132556421645     
          13  -1.1793300002847810E-007
          14  -7.3824372788079758E-008
Sym=    14a
Ene=   0.30511601347683864     
Spin= Alpha
Occup=     0.00000000
           1  0.75328298126312909     
           2  0.94063228705723756     
           3  -2.6604875851428334E-002
           4   2.0208419891800847E-002
           5 -0.46616924532644421     
           6  0.27329503785995302     
           7   4.3728719913440683E-002
           8 -0.56869668739311952     
           9 -0.46617087667899948     
          10  0.24573479991938685     
          11  -5.8407961654132083E-002
          12  0.57984784735911998     
          13  0.13178793106439596     
          14  0.13179009501479466     
