$hessian                                                                        
        0.4530144813  -0.0054690891  -0.0005200229  -0.1787203267  -0.0102394103
        0.1606888728  -0.1642401117   0.0179691945  -0.1583232724  -0.0584527109
       -0.0639120871  -0.0065998254  -0.0516013320   0.0616513921   0.0047542480
       -0.0054690891   0.2454205358  -0.0172893329  -0.0080225967  -0.0216546182
        0.0109427558   0.0158549561  -0.0231435245   0.0204852426  -0.0681713812
       -0.0966366085  -0.0083472086   0.0658081110  -0.1039857846  -0.0057914570
       -0.0005200229  -0.0172893329   0.4362421323   0.1357758460   0.0115952102
       -0.1900256970  -0.1345813919   0.0198428124  -0.2026826928  -0.0063859232
       -0.0082510164  -0.0220092941   0.0057114919  -0.0058976733  -0.0215244483
       -0.1787203267  -0.0080225967   0.1357758460   0.2118771702   0.0127953355
       -0.1975812608   0.0246892429  -0.0017677258   0.0123700937  -0.0295285058
       -0.0107666389   0.0242961703  -0.0283175806   0.0077616259   0.0251391507
       -0.0102394103  -0.0216546182   0.0115952102   0.0127953355   0.0269621438
       -0.0193684224  -0.0000719402  -0.0010834168   0.0075125016  -0.0149273780
       -0.0036739024   0.0152688582   0.0124433930  -0.0005502064  -0.0150081477
        0.1606888728   0.0109427558  -0.1900256970  -0.1975812608  -0.0193684224
        0.2997172175  -0.0066870191   0.0080218856  -0.0879642480   0.0208066957
        0.0091102363  -0.0087141847   0.0227727114  -0.0087064554  -0.0130130878
       -0.1642401117   0.0158549561  -0.1345813919   0.0246892429  -0.0000719402
       -0.0066870191   0.1938086172  -0.0216392779   0.1920339220  -0.0276979409
       -0.0058251966  -0.0265879906  -0.0265598074   0.0116814586  -0.0241775204
        0.0179691945  -0.0231435245   0.0198428124  -0.0017677258  -0.0010834168
        0.0080218856  -0.0216392779   0.0289310351  -0.0311306990  -0.0101855393
        0.0004704691  -0.0140356154   0.0156233486  -0.0051745629   0.0173016164
       -0.1583232724   0.0204852426  -0.2026826928   0.0123700937   0.0075125016
       -0.0879642480   0.1920339220  -0.0311306990   0.3164599019  -0.0244419974
       -0.0076656191  -0.0151503536  -0.0216387459   0.0107985739  -0.0106626074
       -0.0584527109  -0.0681713812  -0.0063859232  -0.0295285058  -0.0149273780
        0.0208066957  -0.0276979409  -0.0101855393  -0.0244419974   0.1127310107
        0.0878675768   0.0095507808   0.0029481470   0.0054167218   0.0004704441
       -0.0639120871  -0.0966366085  -0.0082510164  -0.0107666389  -0.0036739024
        0.0091102363  -0.0058251966   0.0004704691  -0.0076656191   0.0878675768
        0.1337816081   0.0103380291  -0.0073636542  -0.0339415663  -0.0035316299
       -0.0065998254  -0.0083472086  -0.0220092941   0.0242961703   0.0152688582
       -0.0087141847  -0.0265879906  -0.0140356154  -0.0151503536   0.0095507808
        0.0103380291   0.0424190606  -0.0006591351  -0.0032240633   0.0034547719
       -0.0516013320   0.0658081110   0.0057114919  -0.0283175806   0.0124433930
        0.0227727114  -0.0265598074   0.0156233486  -0.0216387459   0.0029481470
       -0.0073636542  -0.0006591351   0.1035305730  -0.0865111984  -0.0061863223
        0.0616513921  -0.1039857846  -0.0058976733   0.0077616259  -0.0005502064
       -0.0087064554   0.0116814586  -0.0051745629   0.0107985739   0.0054167218
       -0.0339415663  -0.0032240633  -0.0865111984   0.1436521202   0.0070296181
        0.0047542480  -0.0057914570  -0.0215244483   0.0251391507  -0.0150081477
       -0.0130130878  -0.0241775204   0.0173016164  -0.0106626074   0.0004704441
       -0.0035316299   0.0034547719  -0.0061863223   0.0070296181   0.0417453717
