$hessian                                                                        
        0.8567991770  -0.0000033646  -0.0000022431  -0.8567991770   0.0000033646
        0.0000022431
       -0.0000033646  -0.0000312037  -0.0000000000   0.0000033646   0.0000312037
        0.0000000000
       -0.0000022431  -0.0000000000  -0.0000312065   0.0000022431   0.0000000000
        0.0000312065
       -0.8567991770   0.0000033646   0.0000022431   0.8567991770  -0.0000033646
       -0.0000022431
        0.0000033646   0.0000312037   0.0000000000  -0.0000033646  -0.0000312037
       -0.0000000000
        0.0000022431   0.0000000000   0.0000312065  -0.0000022431  -0.0000000000
       -0.0000312065
