$hessian                                                                        
        0.5135874700  -0.0409896827  -0.0896162071  -0.2759264437   0.0700000342
       -0.0781464152  -0.1811773503  -0.0487264393   0.1880805542  -0.0329862709
        0.0027167367  -0.0135413868  -0.0234974052   0.0169993512  -0.0067765451
       -0.0409896827   0.0641401012  -0.1031856323   0.0713723035  -0.0648394715
        0.0196954909  -0.0451715820  -0.0061061732   0.0750279240  -0.0147402508
        0.0089851489   0.0050059931   0.0295292120  -0.0021796053   0.0034562243
       -0.0896162071  -0.1031856323   0.2888365284  -0.0809765316   0.0200966408
       -0.0629918589   0.1797452491   0.0763830339  -0.2264721477  -0.0146911377
        0.0029740554  -0.0006312198   0.0055386273   0.0037319022   0.0012586980
       -0.2759264437   0.0713723035  -0.0809765316   0.5073116496  -0.0445373293
        0.1201253599  -0.0435051221   0.0068157191  -0.0013456496  -0.1240862848
       -0.1095309996  -0.0600668706  -0.0637937990   0.0758803062   0.0222636918
        0.0700000342  -0.0648394715   0.0200966408  -0.0445373293   0.4879790334
        0.1632240323   0.0052967671  -0.0008884566  -0.0086795785  -0.1088936002
       -0.1803271378  -0.0793322118   0.0781341283  -0.2419239674  -0.0953088828
       -0.0781464152   0.0196954909  -0.0629918589   0.1201253599   0.1632240323
        0.1335107877   0.0026454715  -0.0093068214   0.0170309065  -0.0646445304
       -0.0840751381  -0.0449218786   0.0200201141  -0.0895375637  -0.0426279567
       -0.1811773503  -0.0451715820   0.1797452491  -0.0435051221   0.0052967671
        0.0026454715   0.2288584456   0.0409269521  -0.1851972692  -0.0021043600
        0.0003527060   0.0007972295  -0.0020716132  -0.0014048431   0.0020093190
       -0.0487264393  -0.0061061732   0.0763830339   0.0068157191  -0.0008884566
       -0.0093068214   0.0409269521   0.0096539916  -0.0660663394  -0.0003090865
        0.0012308430  -0.0057168001   0.0012928545  -0.0038902048   0.0047069270
        0.1880805542   0.0750279240  -0.2264721477  -0.0013456496  -0.0086795785
        0.0170309065  -0.1851972692  -0.0660663394   0.2110995292  -0.0011578332
        0.0004399718  -0.0032861425  -0.0003798023  -0.0007219779   0.0016278545
       -0.0329862709  -0.0147402508  -0.0146911377  -0.1240862848  -0.1088936002
       -0.0646445304  -0.0021043600  -0.0003090865  -0.0011578332   0.1538775132
        0.1188311203   0.0784676176   0.0052994024   0.0051118173   0.0020258837
        0.0027167367   0.0089851489   0.0029740554  -0.1095309996  -0.1803271378
       -0.0840751381   0.0003527060   0.0012308430   0.0004399718   0.1188311203
        0.1881918181   0.0900401122  -0.0123695634  -0.0180806722  -0.0093790012
       -0.0135413868   0.0050059931  -0.0006312198  -0.0600668706  -0.0793322118
       -0.0449218786   0.0007972295  -0.0057168001  -0.0032861425   0.0784676176
        0.0900401122   0.0487501877  -0.0056565897  -0.0099970933   0.0000890533
       -0.0234974052   0.0295292120   0.0055386273  -0.0637937990   0.0781341283
        0.0200201141  -0.0020716132   0.0012928545  -0.0003798023   0.0052994024
       -0.0123695634  -0.0056565897   0.0840634150  -0.0965866315  -0.0195223494
        0.0169993512  -0.0021796053   0.0037319022   0.0758803062  -0.2419239674
       -0.0895375637  -0.0014048431  -0.0038902048  -0.0007219779   0.0051118173
       -0.0180806722  -0.0099970933  -0.0965866315   0.2660744498   0.0965247327
       -0.0067765451   0.0034562243   0.0012586980   0.0222636918  -0.0953088828
       -0.0426279567   0.0020093190   0.0047069270   0.0016278545   0.0020258837
       -0.0093790012   0.0000890533  -0.0195223494   0.0965247327   0.0396523509
