[Molden Format]
[Title]
[Atoms] AU
O      1     8  0.15468299248432E+01 -0.55952337901708E+00  0.73502962153760E+00
C      2     6 -0.80145051452967E+00  0.14089394403170E+00 -0.31429086206088E-01
H      3     1  0.28239291394124E+01 -0.22312908746174E+00 -0.52592370256901E+00
H      4     1 -0.20370648575970E+01 -0.12864880291959E+01 -0.78714079503189E+00
H      5     1 -0.15322418024128E+01  0.19282446619071E+01  0.60946396226610E+00
[GTO]
           1 0
 s           4   1.0000000000000000     
   69.137961906196551      -0.20478756370077797     
   11.906129132707308      -0.24997023136827334     
  0.95670827744340703       0.40025880240639616     
  0.36462520496073686       0.15952206667693555     
 p           4   1.0000000000000000     
   8.2124193257781641        1.1321556799186829     
   2.1293576997098116        1.0476840782254817     
  0.75066448202360914       0.54956508217158984     
  0.29885246543283073        8.2908486592766617E-002

           2 0
 s           4   1.0000000000000000     
   51.049363095579913      -0.16312063210127389     
   8.7911227406887544      -0.19911024581000730     
  0.70640422258929825       0.31882047753655751     
  0.26922813413411617       0.12706504184240380     
 p           4   1.0000000000000000     
   5.8263656140800002       0.73716451545209605     
   1.5106896018720002       0.68216371614850257     
  0.53256483288000001       0.35783053929253711     
  0.21202323690600003        5.3983030275847881E-002

           3 0
 s           3   1.0000000000000000     
   3.3702276975336001       0.27359110588908298     
  0.61389118221497996       0.26460540653860526     
  0.16614291148415999        8.2465947534082318E-002

           4 0
 s           3   1.0000000000000000     
   3.3702276975336001       0.27359110588908298     
  0.61389118221497996       0.26460540653860526     
  0.16614291148415999        8.2465947534082318E-002

           5 0
 s           3   1.0000000000000000     
   3.3702276975336001       0.27359110588908298     
  0.61389118221497996       0.26460540653860526     
  0.16614291148415999        8.2465947534082318E-002

[MO]
Sym=     1a
Ene=  -0.69922154195996056     
Spin= Alpha
Occup=     2.00000000
           1 -0.76999536959255710     
           2   3.5772557742419414E-002
           3  -3.5980908203992711E-002
           4   7.0618377761058337E-002
           5 -0.19895347705619551     
           6 -0.16496306320983217     
           7   4.3743510119342403E-002
           8  -4.1104647358743848E-002
           9 -0.16438885517737928     
          10  -1.2046448070137413E-002
          11  -1.1991767312878666E-002
Sym=     2a
Ene=  -0.61682074730315073     
Spin= Alpha
Occup=     2.00000000
           1 -0.14290123929302997     
           2 -0.55732088700497795     
           3   5.3605658728592569E-002
           4   8.1438648042398629E-002
           5  0.43653999895687584     
           6   6.2915023814712367E-002
           7  -4.7571995124902504E-002
           8   8.7794180925294521E-002
           9 -0.28061515118967917     
          10  0.13580800518888717     
          11  0.13592967316851409     
Sym=     3a
Ene=  -0.55769236160174473     
Spin= Alpha
Occup=     2.00000000
           1  0.33558904116504679     
           2 -0.17848098780227706     
           3 -0.19652513312188372     
           4  0.52960768339163788     
           5 -0.30616691499003246     
           6  0.10778950322596879     
           7 -0.11396416702491230     
           8  0.23040316087805368     
           9 -0.27668369298666090     
          10 -0.19006998326672059     
          11 -0.18713416289527829     
Sym=     4a
Ene=  -0.52791970244057618     
Spin= Alpha
Occup=     2.00000000
           1  -1.1319806856219679E-003
           2   8.7013570644973032E-002
           3  0.54065327909021421     
           4  0.22932738747368761     
           5   1.3874850055427097E-003
           6   6.5796150996188629E-002
           7  0.42410755405239603     
           8  0.18133516567023983     
           9   1.2919506147206657E-003
          10 -0.26748231219797886     
          11  0.26961143905133750     
Sym=     5a
Ene=  -0.51439900571209551     
Spin= Alpha
Occup=     2.00000000
           1 -0.21637730883017628     
           2 -0.33259441539200402     
           3  0.25173384875064642     
           4 -0.46204566890011883     
           5 -0.14682322249044436     
           6  0.43920713792572807     
           7  -4.9663296253496234E-002
           8  -4.4407248263872802E-002
           9   1.1634381070866498E-002
          10 -0.25193863267546324     
          11 -0.25165491450104160     
Sym=     6a
Ene=  -0.41946517594656324     
Spin= Alpha
Occup=     2.00000000
           1  -1.3110444473607835E-003
           2 -0.11490386225062449     
           3 -0.72408802483681201     
           4 -0.31235591186339057     
           5   8.6250755639480226E-007
           6   4.3726216590862059E-002
           7  0.28184510554510656     
           8  0.12488173904513215     
           9   1.5377729822728255E-003
          10 -0.35457453145145623     
          11  0.35475970283028924     
Sym=     7a
Ene=  -0.31743992058729109     
Spin= Alpha
Occup=     1.00000000
           1  0.17669831546427145     
           2   6.8964357203371426E-003
           3 -0.12327675387629380     
           4  0.27488858309872005     
           5   9.8175560197881775E-002
           6  0.27362475662684210     
           7  0.33093441010285535     
           8 -0.86025292875478732     
           9 -0.23820456916702315     
          10  -2.6007862123855946E-002
          11  -2.4771774930048451E-002
Sym=     8a
Ene=    6.9944681841616271E-002
Spin= Alpha
Occup=     0.00000000
           1 -0.69915839261304036     
           2  0.11348826425108831     
           3 -0.24735032604815130     
           4  0.53589951471674302     
           5  0.80796539349246588     
           6  0.25896849478845901     
           7  -7.8467727407076290E-002
           8   9.0370179184802085E-002
           9  0.71191774714979061     
          10 -0.37963986782444353     
          11 -0.38167505895334569     
Sym=     9a
Ene=   0.15535147575689726     
Spin= Alpha
Occup=     0.00000000
           1 -0.40525695383742077     
           2 -0.35521171233150228     
           3  -9.7319874079518323E-002
           4  0.35952212188876981     
           5 -0.81258583149836383     
           6  0.50451633601087886     
           7  -6.2932111226010917E-002
           8  -4.0881949455726901E-002
           9  0.66314644000341172     
          10  0.61867647688784955     
          11  0.62010813446011670     
Sym=    10a
Ene=   0.25874577060430159     
Spin= Alpha
Occup=     0.00000000
           1 -0.16363174150046808     
           2  0.88416141354219979     
           3  -9.6433391526268772E-002
           4  -9.5570778865381789E-002
           5  0.14871095145623250     
           6  0.88766403152069762     
           7 -0.27499981356473502     
           8  0.27460539595324251     
           9 -0.63659557375654652     
          10  0.30035244267465439     
          11  0.32300676449369220     
Sym=    11a
Ene=   0.30001027045959028     
Spin= Alpha
Occup=     0.00000000
           1  -2.0612154509544842E-003
           2  -1.7498452468022434E-002
           3 -0.18462259367825848     
           4  -8.0920418515354989E-002
           5  -2.8179960509241194E-004
           6  0.17481143840707850     
           7   1.0308763875557334     
           8  0.45286573680785785     
           9  -8.4960734845457644E-003
          10  0.85938941905487876     
          11 -0.84842220071238639     
