5
 energy: -7.613257538189 gnorm: 0.061973133442 xtb: 6.2.2 (9d81278992624c895f80dd42a50cac0aa55982e2)
O         0.84306800000000   -0.33393300000000    0.46312000000000
C        -0.51700400000000   -0.05050700000000    0.30521600000000
H         1.28173500000000   -0.03937000000000   -0.37680800000000
H        -0.93496000000000   -0.61713400000000   -0.55495800000000
H        -0.67283800000000    1.04094300000000    0.16343000000000
5
 energy: -7.622230107894 gnorm: 0.040697657707 xtb: 6.2.2 (9d81278992624c895f80dd42a50cac0aa55982e2)
O         0.85130805259517   -0.32756430420142    0.44541466178204
C        -0.47479352423238   -0.01073366328554    0.19801459055562
H         1.36808889032477   -0.06774141720995   -0.34283381599329
H        -1.00938166373620   -0.66409521660679   -0.52598875348774
H        -0.73522075495136    1.07013360130370    0.22539331714336
5
 energy: -7.625278036737 gnorm: 0.015091437150 xtb: 6.2.2 (9d81278992624c895f80dd42a50cac0aa55982e2)
O         0.83741481968289   -0.31703309251778    0.42617836006237
C        -0.46107684991049    0.00309092703700    0.16110163902158
H         1.40067594715877   -0.07997547218718   -0.32648896372803
H        -1.02324097032573   -0.65531941762617   -0.49965854733803
H        -0.75377194660544    1.04923605529414    0.23886751198211
5
 energy: -7.626405969300 gnorm: 0.009851394168 xtb: 6.2.2 (9d81278992624c895f80dd42a50cac0aa55982e2)
O         0.82652027103012   -0.30705577348806    0.40712839833545
C        -0.45060682465771    0.02027626418448    0.11761706099784
H         1.44797333210557   -0.09438318607479   -0.31049688305522
H        -1.04641029988155   -0.66001146169579   -0.47565780456657
H        -0.77747547859642    1.04117315707416    0.26140922828850
5
 energy: -7.626729571784 gnorm: 0.009688351886 xtb: 6.2.2 (9d81278992624c895f80dd42a50cac0aa55982e2)
O         0.82395689986161   -0.30247897957641    0.39750762604620
C        -0.44456741018602    0.03259426180697    0.08698391960399
H         1.46978659053029   -0.10241014344886   -0.29993920936838
H        -1.05938876057485   -0.66656742059467   -0.46173083351212
H        -0.78978631963103    1.03886128181297    0.27717849723032
5
 energy: -7.626997408319 gnorm: 0.006828115298 xtb: 6.2.2 (9d81278992624c895f80dd42a50cac0aa55982e2)
O         0.82256637337113   -0.29878574037657    0.38951793991980
C        -0.43856158095491    0.04791031245372    0.04944602076142
H         1.48505552589213   -0.10966954484102   -0.28879130668317
H        -1.06955792530678   -0.67391679617866   -0.44518612113041
H        -0.79950139300156    1.03446076894253    0.29501346713236
5
 energy: -7.627169273689 gnorm: 0.005509238335 xtb: 6.2.2 (9d81278992624c895f80dd42a50cac0aa55982e2)
O         0.82094348301991   -0.29623954630544    0.38432500620421
C        -0.43164120063216    0.06490919664878    0.00769934706251
H         1.49793974963560   -0.11603247274707   -0.27892628688545
H        -1.07876477514377   -0.68136640948968   -0.42704205613098
H        -0.80847625687958    1.02872823189341    0.31394398974971
5
 energy: -7.627234726778 gnorm: 0.004396975905 xtb: 6.2.2 (9d81278992624c895f80dd42a50cac0aa55982e2)
O         0.81861252447390   -0.29545057664678    0.38357178522143
C        -0.42707082140112    0.07531319071263   -0.01794880159893
H         1.49963007274462   -0.11829061737204   -0.27461033465230
H        -1.08023977455834   -0.68301614430539   -0.41482910959498
H        -0.81093100125905    1.02144314761158    0.32381646062478
5
 energy: -7.627248724111 gnorm: 0.002227616289 xtb: 6.2.2 (9d81278992624c895f80dd42a50cac0aa55982e2)
O         0.81804520317599   -0.29596055724874    0.38529750934406
C        -0.42573353415387    0.07568372131848   -0.01923580960863
H         1.49846157184995   -0.11787472205549   -0.27558734089440
H        -1.07981091610971   -0.68215442449269   -0.41420697176982
H        -0.81096132476236    1.02030498247844    0.32373261292879
5
 energy: -7.627255142274 gnorm: 0.000283307775 xtb: 6.2.2 (9d81278992624c895f80dd42a50cac0aa55982e2)
O         0.81806178433352   -0.29658584189322    0.38790476712464
C        -0.42386899108748    0.07539209097937   -0.01904943732003
H         1.49587205495836   -0.11746566744942   -0.27711427673367
H        -1.07913335463021   -0.68142948980235   -0.41491139723766
H        -0.81093049357419    1.02008790816562    0.32317034416672
5
 energy: -7.627255537296 gnorm: 0.000522804485 xtb: 6.2.2 (9d81278992624c895f80dd42a50cac0aa55982e2)
O         0.81854741387661   -0.29608344157639    0.38896330165347
C        -0.42410971962501    0.07455567965072   -0.01663290802096
H         1.49436067411144   -0.11806652895363   -0.27830185365882
H        -1.07796338121885   -0.68078512753085   -0.41654196014861
H        -0.81083398714419    1.02037841841015    0.32251342017492
