5
 energy: -7.627255536402 gnorm: 0.000522474036 xtb: 6.2.2 (9d81278992624c895f80dd42a50cac0aa55982e2)
O         0.81854722131455   -0.29608704861420    0.38896096114410
C        -0.42410938730440    0.07455787125329   -0.01663155772284
H         1.49435908442840   -0.11807483912930   -0.27830686389453
H        -1.07796839978549   -0.68078021031267   -0.41653700914920
H        -0.81082751865829    1.02038322679765    0.32251446962072
