5
 energy: -10.225912572665 gnorm: 0.143363276728 xtb: 6.2.2 (9d81278992624c895f80dd42a50cac0aa55982e2)
C         1.01546600000000   -0.15699200000000   -0.62133900000000
C         0.43291300000000   -0.25718500000000    0.77250100000000
C        -0.77170800000000   -0.91085000000000    0.12922400000000
C        -0.24375800000000    1.06784200000000    0.49211500000000
C        -0.43291300000000    0.25718500000000   -0.77250100000000
5
 energy: -10.242560726761 gnorm: 0.068362718419 xtb: 6.2.2 (9d81278992624c895f80dd42a50cac0aa55982e2)
C         0.97089998146473   -0.15010168505381   -0.59406991172341
C         0.43351899205001   -0.25754504827841    0.77358210833885
C        -0.73784000109445   -0.87087492440948    0.12355288339634
C        -0.23306002547493    1.02097674655699    0.47051709898350
C        -0.43351894694536    0.25754491118471   -0.77358217899529
5
 energy: -10.247151548035 gnorm: 0.025486873941 xtb: 6.2.2 (9d81278992624c895f80dd42a50cac0aa55982e2)
C         0.92405052163309   -0.14285861393430   -0.56540374323865
C         0.43800956062576   -0.26021274180056    0.78159498484564
C        -0.70223661954696   -0.82885190191753    0.11759094198689
C        -0.22181400101033    0.97171060961439    0.44781260735427
C        -0.43800946170156    0.26021264803800   -0.78159479094816
5
 energy: -10.247478319892 gnorm: 0.004489294218 xtb: 6.2.2 (9d81278992624c895f80dd42a50cac0aa55982e2)
C         0.92977236679959   -0.14374318037931   -0.56890473201128
C         0.44029782739100   -0.26157230337504    0.78567869175637
C        -0.70658481752331   -0.83398460272896    0.11831894651585
C        -0.22318717591655    0.97772789164888    0.45058550684231
C        -0.44029820075072    0.26157219483443   -0.78567841310325
5
 energy: -10.247507438184 gnorm: 0.001315408942 xtb: 6.2.2 (9d81278992624c895f80dd42a50cac0aa55982e2)
C         0.92824321290551   -0.14350692462000   -0.56796868246157
C         0.44191333422151   -0.26253197805778    0.78856124183889
C        -0.70542241976601   -0.83261274751448    0.11812467618715
C        -0.22282006363222    0.97611944408703    0.44984469309149
C        -0.44191406372879    0.26253220610524   -0.78856192865596
5
 energy: -10.247510429299 gnorm: 0.000655485600 xtb: 6.2.2 (9d81278992624c895f80dd42a50cac0aa55982e2)
C         0.92666729914855   -0.14326155005656   -0.56700443771142
C         0.44309072140907   -0.26323374770058    0.79066964670946
C        -0.70422396115213   -0.83120411078333    0.11792139932403
C        -0.22243684941651    0.97446663228247    0.44907904280018
C        -0.44309720998898    0.26323277625801   -0.79066565112226
