$hessian                                                                        
        0.3533222104  -0.0599894447  -0.1093286246  -0.0355739629  -0.0066150929
        0.0945920043  -0.0575571765  -0.0087992641   0.0393689550  -0.0324478842
        0.0034122577   0.0292475551  -0.2277431867   0.0719915439  -0.0538798898
       -0.0599894447   0.0708668417  -0.0073128832   0.0000360346   0.0018281007
        0.0169417487  -0.0419910260  -0.0210991513   0.0105803259   0.0365412683
       -0.0357450769  -0.0382692056   0.0654031678  -0.0158507142   0.0180600142
       -0.1093286246  -0.0073128832   0.2526976860   0.0588306127   0.0265094351
       -0.2252487999   0.0282494556  -0.0079989662  -0.0007181273   0.0403007725
       -0.0197054090  -0.0113368695  -0.0180522162   0.0085078233  -0.0153938894
       -0.0355739629   0.0000360346   0.0588306127   0.2552497790  -0.0344617966
        0.1034357472  -0.1581856090  -0.0908610831  -0.0844013938  -0.0509062262
        0.1076783010  -0.0246767749  -0.0105839808   0.0176085441  -0.0531881912
       -0.0066150929   0.0018281007   0.0265094351  -0.0344617966   0.2176832646
       -0.0614184342  -0.0707743255  -0.0418755728  -0.0286018635   0.0941155875
       -0.1863415214   0.0319356746   0.0177356275   0.0087057290   0.0315751879
        0.0945920043   0.0169417487  -0.2252487999   0.1034357472  -0.0614184342
        0.3818603873  -0.1064893166  -0.0514124077  -0.0591018880  -0.0383090323
        0.0642972408  -0.0218552141  -0.0532294026   0.0315918524  -0.0756544853
       -0.0575571765  -0.0419910260   0.0282494556  -0.1581856090  -0.0707743255
       -0.1064893166   0.2397563816   0.1648816662   0.0291714376  -0.0118934856
       -0.0040198565   0.0152737619  -0.0121201104  -0.0480964582   0.0337946615
       -0.0087992641  -0.0210991513  -0.0079989662  -0.0908610831  -0.0418755728
       -0.0514124077   0.1648816662   0.2807665265  -0.0635664865  -0.0372504954
       -0.0734431766  -0.0095258846  -0.0279708237  -0.1443486258   0.1325037449
        0.0393689550   0.0105803259  -0.0007181273  -0.0844013938  -0.0286018635
       -0.0591018880   0.0291714376  -0.0635664865   0.1564565288   0.0042618942
       -0.0281361900   0.0060794657   0.0115991071   0.1097242141  -0.1027159792
       -0.0324478842   0.0365412683   0.0403007725  -0.0509062262   0.0941155875
       -0.0383090323  -0.0118934856  -0.0372504954   0.0042618942   0.0999989773
       -0.0863486674   0.0238788003  -0.0047513813  -0.0070576930  -0.0301324347
        0.0034122577  -0.0357450769  -0.0197054090   0.1076783010  -0.1863415214
        0.0642972408  -0.0040198565  -0.0734431766  -0.0281361900  -0.0863486674
        0.3617519148   0.1042326503  -0.0207220348  -0.0662221398  -0.1206882920
        0.0292475551  -0.0382692056  -0.0113368695  -0.0246767749   0.0319356746
       -0.0218552141   0.0152737619  -0.0095258846   0.0060794657   0.0238788003
        0.1042326503   0.2151853820  -0.0437233424  -0.0883732347  -0.1880727641
       -0.2277431867   0.0654031678  -0.0180522162  -0.0105839808   0.0177356275
       -0.0532294026  -0.0121201104  -0.0279708237   0.0115991071  -0.0047513813
       -0.0207220348  -0.0437233424   0.2551986593  -0.0344459368   0.1034058542
        0.0719915439  -0.0158507142   0.0085078233   0.0176085441   0.0087057290
        0.0315918524  -0.0480964582  -0.1443486258   0.1097242141  -0.0070576930
       -0.0662221398  -0.0883732347  -0.0344459368   0.2177157509  -0.0614506551
       -0.0538798898   0.0180600142  -0.0153938894  -0.0531881912   0.0315751879
       -0.0756544853   0.0337946615   0.1325037449  -0.1027159792  -0.0301324347
       -0.1206882920  -0.1880727641   0.1034058542  -0.0614506551   0.3818371179
