      -----------------------------------------------------------      
     |                   =====================                   |     
     |                           x T B                           |     
     |                   =====================                   |     
     |                         S. Grimme                         |     
     |          Mulliken Center for Theoretical Chemistry        |     
     |                    University of Bonn                     |     
      -----------------------------------------------------------      

   * xtb version 6.2.2 (9d81278992624c895f80dd42a50cac0aa55982e2) compiled by '@Darwin' on 04/03/2020

   xtb is free software: you can redistribute it and/or modify it under
   the terms of the GNU Lesser General Public License as published by
   the Free Software Foundation, either version 3 of the License, or
   (at your option) any later version.
   
   xtb is distributed in the hope that it will be useful,
   but WITHOUT ANY WARRANTY; without even the implied warranty of
   MERCHANTABILITY or FITNESS FOR A PARTICULAR PURPOSE.  See the
   GNU Lesser General Public License for more details.
   
   Cite this work as:
   * S. Grimme, C. Bannwarth, P. Shushkov, J. Chem. Theory Comput., 2017,
     13, 1989-2009. DOI: 10.1021/acs.jctc.7b00118
   * C. Bannwarth, S. Ehlert and S. Grimme., J. Chem. Theory Comput., 2019,
     15, 1652-1671. DOI: 10.1021/acs.jctc.8b01176
   * P. Pracht, E. Caldeweyher, S. Ehlert, S. Grimme, ChemRxiv, 2019, preprint.
     DOI: 10.26434/chemrxiv.8326202.v1
   
   for DFT-D4:
   * E. Caldeweyher, C. Bannwarth and S. Grimme, J. Chem. Phys., 2017,
     147, 034112. DOI: 10.1063/1.4993215
   * E. Caldeweyher, S. Ehlert, A. Hansen, H. Neugebauer, S. Spicher,
     C. Bannwarth and S. Grimme, J. Chem. Phys., 2019, 150, 154122.
     DOI: 10.1063/1.5090222
   
   for sTDA-xTB:
   * S. Grimme and C. Bannwarth, J. Chem. Phys., 2016, 145, 054103.
     DOI: 10.1063/1.4959605
   
   in the mass-spec context:
   * V. Asgeirsson, C. Bauer and S. Grimme, Chem. Sci., 2017, 8, 4879.
     DOI: 10.1039/c7sc00601b
   
   for metadynamics refer to:
   * S. Grimme, J. Chem. Theory Comput., 2019, 155, 2847-2862
     DOI: 10.1021/acs.jctc.9b00143
   
   with help from (in alphabetical order)
   C. Bannwarth, F. Bohle, G. Brandenburg, E. Caldeweyher, M. Checinski,
   S. Dohm, S. Ehlert, S. Ehrlich, F. März, H. Neugebauer, J. Pisarek,
   P. Pracht, P. Shushkov, and S. Spicher.
   
 * started run on 2020/05/12 at 11:44:36.508     

           -------------------------------------------------
          |                Calculation Setup                |
           -------------------------------------------------

          program call               : xtb --input C5_12_S_0.input C5_12_S_0.xyz --ohess --molden --namespace C5_12_S_0 output.out
          calculation namespace      : C5_12_S_0
          coordinate file            : C5_12_S_0.xyz
          number of atoms            :                     5
          number of electrons        :                    20
          charge                     :                     0
          spin                       :                   0.0
          first test random number   :      0.65256171319260

   ID    Z sym.   atoms
    1    6 C      1-5

           -------------------------------------------------
          |                 G F N 2 - x T B                 |
           -------------------------------------------------

        Reference                      10.1021/acs.jctc.8b01176
      * Hamiltonian:
        H0-scaling (s, p, d)           1.850000    2.230000    2.230000
        zeta-weighting                 0.500000
      * Dispersion:
        s8                             2.700000
        a1                             0.520000
        a2                             5.000000
        s9                             5.000000
      * Repulsion:
        kExp                           1.500000    1.000000
        rExp                           1.000000
      * Coulomb:
        alpha                          2.000000
        third order                    shell-resolved
        anisotropic                    true
        a3                             3.000000
        a5                             4.000000
        cn-shift                       1.200000
        cn-exp                         4.000000
        max-rad                        5.000000


          ...................................................
          :                      SETUP                      :
          :.................................................:
          :  # basis functions                  20          :
          :  # atomic orbitals                  20          :
          :  # shells                           10          :
          :  # electrons                        20          :
          :  max. iterations                   250          :
          :  Hamiltonian                  GFN2-xTB          :
          :  restarted?                      false          :
          :  GBSA solvation                  false          :
          :  PC potential                    false          :
          :  electronic temp.          300.0000000     K    :
          :  accuracy                    1.0000000          :
          :  -> integral cutoff          0.2500000E+02      :
          :  -> integral neglect         0.1000000E-07      :
          :  -> SCF convergence          0.1000000E-05 Eh   :
          :  -> wf. convergence          0.1000000E-03 e    :
          :  Broyden damping             0.4000000          :
          ...................................................

 iter      E             dE          RMSdq      gap      omega  full diag
   1    -10.3084947 -0.103085E+02  0.988E+00    3.03       0.0  T
   2    -10.3158424 -0.734770E-02  0.576E+00    2.90       1.0  T
   3    -10.3146144  0.122799E-02  0.114E+00    3.24       1.0  T
   4    -10.3175357 -0.292133E-02  0.420E-01    3.00       1.0  T
   5    -10.3148917  0.264403E-02  0.721E-01    3.26       1.0  T
   6    -10.3178318 -0.294014E-02  0.786E-02    3.06       1.0  T
   7    -10.3178666 -0.347624E-04  0.179E-02    3.07       2.5  T
   8    -10.3178682 -0.161764E-05  0.882E-03    3.08       5.1  T
   9    -10.3178684 -0.220949E-06  0.464E-03    3.08       9.6  T
  10    -10.3178685 -0.110730E-06  0.127E-03    3.08      35.3  T
  11    -10.3178685 -0.907181E-08  0.555E-05    3.08     806.0  T
  12    -10.3178685 -0.994937E-11  0.247E-05    3.08    1810.1  T

   *** convergence criteria satisfied after 12 iterations ***

         #    Occupation            Energy/Eh            Energy/eV
      -------------------------------------------------------------
         1        2.0000           -0.7682292             -20.9046
       ...           ...                  ...                  ...
         4        2.0000           -0.6339154             -17.2497
         5        2.0000           -0.5329035             -14.5010
         6        2.0000           -0.5329035             -14.5010
         7        2.0000           -0.5164071             -14.0522
         8        2.0000           -0.4895419             -13.3211
         9        2.0000           -0.4895418             -13.3211
        10        2.0000           -0.4808518             -13.0846 (HOMO)
        11                         -0.3677026             -10.0057 (LUMO)
        12                         -0.3677025             -10.0057
        13                         -0.3618246              -9.8457
        14                         -0.3447072              -9.3800
        15                         -0.0606239              -1.6497
       ...                                ...                  ...
        20                          0.3200455               8.7089
      -------------------------------------------------------------
                  HL-Gap            0.1131492 Eh            3.0789 eV
             Fermi-level           -0.4242772 Eh          -11.5452 eV

 SCC (total)                   0 d,  0 h,  0 min,  0.005 sec
 SCC setup                      ...        0 min,  0.000 sec (  1.844%)
 Dispersion                     ...        0 min,  0.000 sec (  0.499%)
 integral evaluation            ...        0 min,  0.001 sec ( 30.500%)
 zeroth order Hamiltonian       ...        0 min,  0.000 sec (  0.457%)
 iterations                     ...        0 min,  0.001 sec ( 32.369%)
 molecular gradient             ...        0 min,  0.002 sec ( 32.992%)
 printout                       ...        0 min,  0.000 sec (  1.153%)

         :::::::::::::::::::::::::::::::::::::::::::::::::::::
         ::                     SUMMARY                     ::
         :::::::::::::::::::::::::::::::::::::::::::::::::::::
         :: total energy             -10.225912572961 Eh    ::
         :: gradient norm              0.143363170506 Eh/a0 ::
         :: HOMO-LUMO gap              3.078946648544 eV    ::
         ::.................................................::
         :: SCC energy               -10.317868547676 Eh    ::
         :: -> isotropic ES           -0.023860222640 Eh    ::
         :: -> anisotropic ES          0.001489157917 Eh    ::
         :: -> anisotropic XC          0.005358288049 Eh    ::
         :: -> dispersion             -0.002526688271 Eh    ::
         :: repulsion energy           0.091955945098 Eh    ::
         :: add. restraining           0.000000000000 Eh    ::
         :::::::::::::::::::::::::::::::::::::::::::::::::::::

      ----------------------------------------------------------- 
     |                   =====================                   |
     |                        A N C O P T                        |
     |                   =====================                   |
     |               Approximate Normal Coordinate               |
     |                Rational Function Optimizer                |
      ----------------------------------------------------------- 

          ...................................................
          :                      SETUP                      :
          :.................................................:
          :   optimization level            normal          :
          :   max. optcycles                   200          :
          :   ANC micro-cycles                  20          :
          :   degrees of freedom                 9          :
          :.................................................:
          :   RF solver                   davidson          :
          :   write xtbopt.log                true          :
          :   linear?                        false          :
          :   energy convergence         0.5000000E-05 Eh   :
          :   grad. convergence          0.1000000E-02 Eh/α :
          :   maximium RF displ.         1.0000000          :
          :   Hlow (freq-cutoff)         0.1000000E-01      :
          :   Hmax (freq-cutoff)         5.0000000          :
          :   S6 in model hess.         20.0000000          :
          ...................................................

generating ANC from model Hessian ...
Using Lindh-Hessian (1995)
 Shifting diagonal of input Hessian by    0.0000000000000000     
 Lowest  eigenvalues of input Hessian
   -0.000000   -0.000000   -0.000000   -0.000000    0.000000    0.000000
    0.143981    0.143981    0.401266    0.735285    0.735286    0.889223
    0.981792    0.981793    1.192241
 Highest eigenvalues
    0.735285    0.735286    0.889223    0.981792    0.981793    1.192241


........................................................................
.............................. CYCLE    1 ..............................
........................................................................
   1    -10.3178685 -0.103179E+02  0.114E-05    3.08       0.0  T
   2    -10.3178685 -0.381917E-12  0.745E-06    3.08    6004.5  T
   3    -10.3178685 -0.298428E-12  0.247E-06    3.08   18120.0  T
     SCC iter.                  ...        0 min,  0.000 sec
     gradient                   ...        0 min,  0.001 sec
 * total energy  :   -10.2259126 Eh     change        0.2968452E-09 Eh
   gradient norm :     0.1433633 Eh/α   predicted     0.0000000E+00 (-100.00%)
   displ. norm   :     0.1725250 α      lambda       -0.2189307E-01
   maximum displ.:     0.1342014 α      in ANC's #3, #9, #2, ...

........................................................................
.............................. CYCLE    2 ..............................
........................................................................
   1    -10.3614880 -0.103615E+02  0.961E-01    3.20       0.0  T
   2    -10.3624444 -0.956399E-03  0.615E-01    3.20       1.0  T
   3    -10.3628066 -0.362179E-03  0.351E-01    3.20       1.0  T
   4    -10.3629010 -0.943693E-04  0.344E-02    3.20       1.3  T
   5    -10.3629014 -0.402033E-06  0.432E-03    3.20      10.4  T
   6    -10.3629015 -0.580450E-07  0.161E-03    3.20      27.9  T
   7    -10.3629015  0.489539E-08  0.159E-03    3.20      28.2  T
   8    -10.3629015 -0.162344E-07  0.110E-04    3.20     408.4  T
   9    -10.3629015 -0.728484E-11  0.386E-05    3.20    1159.1  T
     SCC iter.                  ...        0 min,  0.001 sec
     gradient                   ...        0 min,  0.001 sec
 * total energy  :   -10.2425607 Eh     change       -0.1664815E-01 Eh
   gradient norm :     0.0683627 Eh/α   predicted    -0.1127236E-01 ( -32.29%)
   displ. norm   :     0.1831207 α      lambda       -0.1099360E-01
   maximum displ.:     0.1552006 α      in ANC's #3, #9, #7, ...

........................................................................
.............................. CYCLE    3 ..............................
........................................................................
   1    -10.3989718 -0.103990E+02  0.112E+00    3.04       0.0  T
   2    -10.4002663 -0.129449E-02  0.681E-01    2.82       1.0  T
   3    -10.4005514 -0.285066E-03  0.381E-01    2.94       1.0  T
   4    -10.4006550 -0.103600E-03  0.376E-02    2.90       1.2  T
   5    -10.4006553 -0.313987E-06  0.565E-03    2.89       7.9  T
   6    -10.4006552  0.691518E-07  0.564E-03    2.89       7.9  T
   7    -10.4006555 -0.235368E-06  0.857E-04    2.89      52.2  T
   8    -10.4006555 -0.281089E-09  0.935E-05    2.89     478.3  T
     SCC iter.                  ...        0 min,  0.001 sec
     gradient                   ...        0 min,  0.001 sec
 * total energy  :   -10.2471515 Eh     change       -0.4590821E-02 Eh
   gradient norm :     0.0254869 Eh/α   predicted    -0.5681127E-02 (  23.75%)
   displ. norm   :     0.0256938 α      lambda       -0.6097617E-03
   maximum displ.:     0.0242268 α      in ANC's #9, #3, #1, ...

........................................................................
.............................. CYCLE    4 ..............................
........................................................................
   1    -10.3927506 -0.103928E+02  0.128E-01    2.85       0.0  T
   2    -10.3927592 -0.854843E-05  0.795E-02    2.87       1.0  T
   3    -10.3927594 -0.239311E-06  0.409E-02    2.86       1.1  T
   4    -10.3927619 -0.249553E-05  0.461E-03    2.86       9.7  T
   5    -10.3927617  0.147483E-06  0.440E-03    2.86      10.2  T
   6    -10.3927619 -0.155141E-06  0.327E-04    2.86     137.0  T
   7    -10.3927619 -0.708109E-10  0.177E-04    2.86     252.3  T
     SCC iter.                  ...        0 min,  0.001 sec
     gradient                   ...        0 min,  0.001 sec
 * total energy  :   -10.2474783 Eh     change       -0.3267719E-03 Eh
   gradient norm :     0.0044893 Eh/α   predicted    -0.3050811E-03 (  -6.64%)
   displ. norm   :     0.0109374 α      lambda       -0.4395977E-04
   maximum displ.:     0.0104509 α      in ANC's #3, #9, #6, ...

........................................................................
.............................. CYCLE    5 ..............................
........................................................................
   1    -10.3920019 -0.103920E+02  0.769E-02    2.82       0.0  T
   2    -10.3920059 -0.400601E-05  0.452E-02    2.80       1.0  T
   3    -10.3920064 -0.472328E-06  0.238E-02    2.81       1.9  T
   4    -10.3920070 -0.627297E-06  0.434E-03    2.81      10.3  T
   5    -10.3920071 -0.117453E-06  0.171E-03    2.81      26.2  T
   6    -10.3920071 -0.550296E-08  0.150E-04    2.81     298.5  T
   7    -10.3920071  0.133783E-09  0.187E-04    2.81     238.6  T
     SCC iter.                  ...        0 min,  0.001 sec
     gradient                   ...        0 min,  0.001 sec
 * total energy  :   -10.2475074 Eh     change       -0.2911829E-04 Eh
   gradient norm :     0.0013154 Eh/α   predicted    -0.2198309E-04 ( -24.50%)
   displ. norm   :     0.0090708 α      lambda       -0.7679890E-05
   maximum displ.:     0.0089888 α      in ANC's #3, #9, #1, ...

........................................................................
.............................. CYCLE    6 ..............................
........................................................................
   1    -10.3918289 -0.103918E+02  0.640E-02    2.78       0.0  T
   2    -10.3918321 -0.321491E-05  0.378E-02    2.76       1.2  T
   3    -10.3918326 -0.525127E-06  0.204E-02    2.77       2.2  T
   4    -10.3918331 -0.454126E-06  0.172E-03    2.77      26.0  T
   5    -10.3918331  0.292773E-07  0.221E-03    2.77      20.2  T
   6    -10.3918331 -0.331024E-07  0.268E-04    2.77     167.2  T
   7    -10.3918331 -0.383450E-09  0.147E-04    2.77     303.3  T
     SCC iter.                  ...        0 min,  0.001 sec
     gradient                   ...        0 min,  0.001 sec
 * total energy  :   -10.2475104 Eh     change       -0.2991115E-05 Eh
   gradient norm :     0.0006555 Eh/α   predicted    -0.3838646E-05 (  28.33%)
   displ. norm   :     0.0029099 α      lambda       -0.1195365E-05
   maximum displ.:     0.0028702 α      in ANC's #3, #9, #1, ...

   *** GEOMETRY OPTIMIZATION CONVERGED AFTER 6 ITERATIONS ***

------------------------------------------------------------------------
 total energy gain   :        -0.0215979 Eh      -13.5529 kcal/mol
 total RMSD          :         0.1558708 a0        0.0825 Å
 total power (kW/mol):        -9.4508607 (step)-2512.0799 (real)
------------------------------------------------------------------------

 ANCopt (total)                0 d,  0 h,  0 min,  0.023 sec
 optimizer setup                ...        0 min,  0.000 sec (  0.288%)
 model hessian                  ...        0 min,  0.000 sec (  0.470%)
 ANC generation                 ...        0 min,  0.000 sec (  0.230%)
 coordinate transformation      ...        0 min,  0.000 sec (  0.058%)
 single point calculation       ...        0 min,  0.022 sec ( 96.750%)
 optimization log               ...        0 min,  0.000 sec (  0.556%)
 hessian update                 ...        0 min,  0.000 sec (  0.060%)
 rational function              ...        0 min,  0.000 sec (  0.773%)

================
 final structure:
================
5
 xtb: 6.2.2 (9d81278992624c895f80dd42a50cac0aa55982e2)
C         0.92666729914855   -0.14326155005656   -0.56700443771142
C         0.44309072140907   -0.26323374770058    0.79066964670946
C        -0.70422396115213   -0.83120411078333    0.11792139932403
C        -0.22243684941651    0.97446663228247    0.44907904280018
C        -0.44309720998898    0.26323277625801   -0.79066565112226

 Bond Distances (Angstroems)
 ---------------------------
C1-C2=1.4462         C1-C3=1.8979         C1-C4=1.8979         C1-C5=1.4462         C2-C1=1.4462         C2-C3=1.4462         
C2-C4=1.4462         C2-C5=1.8876         C3-C1=1.8979         C3-C2=1.4462         C3-C4=1.8980         C3-C5=1.4462         
C4-C1=1.8979         C4-C2=1.4462         C4-C3=1.8980         C4-C5=1.4462         C5-C1=1.4462         C5-C2=1.8876         
C5-C3=1.4462         C5-C4=1.4462         
 C  C  Rav=1.6259 sigma=0.2201  Rmin=1.4462  Rmax=1.8980    10

 selected bond angles (degree)
 --------------------
C3-C1-C2= 48.99                C4-C1-C2= 48.99                C4-C1-C3= 60.00                C5-C1-C2= 81.48                
C5-C1-C3= 48.99                C5-C1-C4= 48.99                C3-C2-C1= 82.02                C4-C2-C1= 82.02                
C4-C2-C3= 82.02                C5-C2-C1= 49.26                C5-C2-C3= 49.26                C5-C2-C4= 49.26                
C2-C3-C1= 48.99                C4-C3-C1= 60.00                C4-C3-C2= 48.99                C5-C3-C1= 48.99                
C5-C3-C2= 81.48                C5-C3-C4= 48.99                C2-C4-C1= 48.99                C3-C4-C1= 60.00                
C3-C4-C2= 48.99                C5-C4-C1= 48.99                C5-C4-C2= 81.48                C5-C4-C3= 48.99                
C2-C5-C1= 49.26                C3-C5-C1= 82.02                C3-C5-C2= 49.26                C4-C5-C1= 82.02                
C4-C5-C2= 49.26                C4-C5-C3= 82.02                

 selected dihedral angles (degree)
 ---------------------------------
C3-C2-C1-C4= 83.00            C3-C2-C1-C5= 41.50            C4-C2-C1-C3=277.00            C4-C2-C1-C5=318.50            
C5-C2-C1-C3=318.50            C5-C2-C1-C4= 41.50            C1-C3-C2-C4= 83.00            C1-C3-C2-C5= 41.50            
C4-C3-C2-C1=277.00            C4-C3-C2-C5=318.50            C5-C3-C2-C1=318.50            C5-C3-C2-C4= 41.50            
C1-C4-C2-C3=277.00            C1-C4-C2-C5=318.50            C3-C4-C2-C1= 83.00            C3-C4-C2-C5= 41.50            
C5-C4-C2-C1= 41.50            C5-C4-C2-C3=318.50            C2-C5-C1-C3= 41.50            C2-C5-C1-C4=318.50            
C3-C5-C1-C2=318.50            C3-C5-C1-C4=277.00            C4-C5-C1-C2= 41.50            C4-C5-C1-C3= 83.00            
C1-C5-C3-C2= 41.50            C1-C5-C3-C4= 83.00            C2-C5-C3-C1=318.50            C2-C5-C3-C4= 41.50            
C4-C5-C3-C1=277.00            C4-C5-C3-C2=318.50            C1-C5-C4-C2=318.50            C1-C5-C4-C3=277.00            
C2-C5-C4-C1= 41.50            C2-C5-C4-C3=318.50            C3-C5-C4-C1= 83.00            C3-C5-C4-C2= 41.50            
           -------------------------------------------------
          |                Final Singlepoint                |
           -------------------------------------------------

          ...................................................
          :                      SETUP                      :
          :.................................................:
          :  # basis functions                  20          :
          :  # atomic orbitals                  20          :
          :  # shells                           10          :
          :  # electrons                        20          :
          :  max. iterations                   250          :
          :  Hamiltonian                  GFN2-xTB          :
          :  restarted?                      false          :
          :  GBSA solvation                  false          :
          :  PC potential                    false          :
          :  electronic temp.          300.0000000     K    :
          :  accuracy                    1.0000000          :
          :  -> integral cutoff          0.2500000E+02      :
          :  -> integral neglect         0.1000000E-07      :
          :  -> SCF convergence          0.1000000E-05 Eh   :
          :  -> wf. convergence          0.1000000E-03 e    :
          :  Broyden damping             0.4000000          :
          ...................................................

 iter      E             dE          RMSdq      gap      omega  full diag
   1    -10.3918331 -0.103918E+02  0.586E-05    2.77       0.0  T
   2    -10.3918331  0.740741E-12  0.439E-05    2.77    1019.0  T
   3    -10.3918331  0.326583E-10  0.626E-05    2.77     714.2  T

   *** convergence criteria satisfied after 3 iterations ***

         #    Occupation            Energy/Eh            Energy/eV
      -------------------------------------------------------------
         1        2.0000           -0.7768903             -21.1403
       ...           ...                  ...                  ...
         4        2.0000           -0.6480814             -17.6352
         5        2.0000           -0.5376552             -14.6303
         6        2.0000           -0.5376534             -14.6303
         7        2.0000           -0.4991515             -13.5826
         8        2.0000           -0.4781216             -13.0104
         9        2.0000           -0.4750135             -12.9258
        10        2.0000           -0.4750135             -12.9258 (HOMO)
        11                         -0.3733091             -10.1583 (LUMO)
        12                         -0.3264909              -8.8843
        13                         -0.3264873              -8.8842
        14                         -0.2966870              -8.0733
        15                          0.0153078               0.4165
       ...                                ...                  ...
        20                          0.5506102              14.9829
      -------------------------------------------------------------
                  HL-Gap            0.1017043 Eh            2.7675 eV
             Fermi-level           -0.4241613 Eh          -11.5420 eV

 SCC (total)                   0 d,  0 h,  0 min,  0.003 sec
 SCC setup                      ...        0 min,  0.000 sec (  1.366%)
 Dispersion                     ...        0 min,  0.000 sec (  0.262%)
 integral evaluation            ...        0 min,  0.001 sec ( 40.344%)
 zeroth order Hamiltonian       ...        0 min,  0.000 sec (  0.439%)
 iterations                     ...        0 min,  0.000 sec ( 11.228%)
 molecular gradient             ...        0 min,  0.001 sec ( 44.181%)
 printout                       ...        0 min,  0.000 sec (  1.961%)

         :::::::::::::::::::::::::::::::::::::::::::::::::::::
         ::                     SUMMARY                     ::
         :::::::::::::::::::::::::::::::::::::::::::::::::::::
         :: total energy             -10.247510429440 Eh    ::
         :: gradient norm              0.000655447256 Eh/a0 ::
         :: HOMO-LUMO gap              2.767515745252 eV    ::
         ::.................................................::
         :: SCC energy               -10.391833094490 Eh    ::
         :: -> isotropic ES           -0.014892758487 Eh    ::
         :: -> anisotropic ES          0.002528518723 Eh    ::
         :: -> anisotropic XC          0.004137086224 Eh    ::
         :: -> dispersion             -0.002391822834 Eh    ::
         :: repulsion energy           0.144322647749 Eh    ::
         :: add. restraining           0.000000000000 Eh    ::
         :::::::::::::::::::::::::::::::::::::::::::::::::::::

           ------------------------------------------------- 
          |                Numerical Hessian                |
           ------------------------------------------------- 
step length          :   0.00500
SCC accuracy         :   0.30000
Hessian scale factor :   1.00000
frozen atoms in %    :   0.00000    0
RMS gradient         :   0.00066
estimated CPU  time      0.00 min
estimated wall time      0.00 min

writing file <hessian>.

 projected vibrational frequencies (cm-1)
eigval :       -0.00    -0.00     0.00     0.00     0.00     0.00
eigval :      464.89   465.23   663.08   882.66   882.69  1123.54
eigval :     1136.26  1136.43  1397.75
           -------------------------------------------------
          |                Property Printout                |
           -------------------------------------------------

    * Orbital Energies and Occupations

         #    Occupation            Energy/Eh            Energy/eV
      -------------------------------------------------------------
         1        2.0000           -0.7768903             -21.1403
         2        2.0000           -0.6563085             -17.8591
         3        2.0000           -0.6563074             -17.8590
         4        2.0000           -0.6480813             -17.6352
         5        2.0000           -0.5376552             -14.6303
         6        2.0000           -0.5376534             -14.6303
         7        2.0000           -0.4991515             -13.5826
         8        2.0000           -0.4781216             -13.0104
         9        2.0000           -0.4750135             -12.9258
        10        2.0000           -0.4750134             -12.9258 (HOMO)
        11                         -0.3733091             -10.1583 (LUMO)
        12                         -0.3264909              -8.8843
        13                         -0.3264872              -8.8842
        14                         -0.2966870              -8.0733
        15                          0.0153078               0.4165
        16                          0.0153138               0.4167
        17                          0.1087967               2.9605
        18                          0.1087982               2.9606
        19                          0.1407614               3.8303
        20                          0.5506102              14.9829
      -------------------------------------------------------------
                  HL-Gap            0.1017043 Eh            2.7675 eV
             Fermi-level           -0.4241613 Eh          -11.5420 eV

     #   Z        covCN         q      C6AA      α(0)
     1   6 C      3.343    -0.054    26.585     8.145
     2   6 C      3.648     0.081    19.550     6.352
     3   6 C      3.343    -0.054    26.585     8.146
     4   6 C      3.343    -0.054    26.585     8.145
     5   6 C      3.648     0.081    19.550     6.352

 Mol. C6AA /au·bohr⁶  :        590.405101
 Mol. C8AA /au·bohr⁸  :      17075.541508
 Mol. α(0) /au        :         37.141193


Wiberg/Mayer (AO) data.
largest (>0.10) Wiberg bond orders for each atom
          total WBO             WBO to atom ...
     1  C   3.065        C    5 0.980    C    2 0.980    C    3 0.553    C    4 0.553
     2  C   3.575        C    3 0.980    C    4 0.980    C    1 0.980    C    5 0.635
     3  C   3.065        C    5 0.980    C    2 0.980    C    4 0.553    C    1 0.553
     4  C   3.065        C    5 0.980    C    2 0.980    C    3 0.553    C    1 0.553
     5  C   3.575        C    3 0.980    C    4 0.980    C    1 0.980    C    2 0.635

MOs/occ written to file <molden.input>


molecular dipole:
                 x           y           z       tot (Debye)
 q only:       -0.000      -0.000       0.000
   full:       -0.000      -0.000       0.000       0.000
molecular quadrupole (traceless):
                xx          xy          yy          xz          yz          zz
 q only:       -0.145      -0.168      -0.329       0.506      -0.301       0.474
  q+dip:       -0.422      -0.489      -0.954       1.468      -0.872       1.375
   full:       -0.348      -0.404      -0.788       1.212      -0.720       1.136

           -------------------------------------------------
          |                Geometry Summary                 |
           -------------------------------------------------

      molecular mass/u    :       60.0536795
   center of mass at/Å    :        0.0000000      -0.0000000       0.0000000
  moments of inertia/u·Å² :        0.4303021E+02   0.4303056E+02   0.4326510E+02
rotational constants/cm⁻¹ :        0.3917627E+00   0.3917595E+00   0.3896358E+00

 * 6 selected distances

     #   Z        #   Z                                     value/Å
     1   6 C      2   6 C                                 1.4462083 (max)
     2   6 C      3   6 C                                 1.4462059
     2   6 C      4   6 C                                 1.4462065
     1   6 C      5   6 C                                 1.4462077
     3   6 C      5   6 C                                 1.4462053 (min)
     4   6 C      5   6 C                                 1.4462059

 * 1 distinct bonds (by element types)

   Z      Z             #   av. dist./Å        max./Å        min./Å
   6 C    6 C           6     1.4462066     1.4462083     1.4462053

           -------------------------------------------------
          |               Frequency Printout                |
           -------------------------------------------------
 projected vibrational frequencies (cm-1)
eigval :       -0.00    -0.00     0.00     0.00     0.00     0.00
eigval :      464.89   465.23   663.08   882.66   882.69  1123.54
eigval :     1136.26  1136.43  1397.75
 reduced masses (amu)
   1: 12.01   2: 12.01   3: 12.01   4: 12.01   5: 12.01   6: 12.01   7: 12.01   8: 12.01
   9: 12.01  10: 12.01  11: 12.01  12: 12.01  13: 12.01  14: 12.01  15: 12.01
 IR intensities (amu)
   1:  0.01   2:  0.01   3:  0.01   4:  0.01   5:  0.01   6:  0.00   7:  0.52   8:  0.52
Refinement of some symmetry elements was terminated before convergence was reached.
Some symmetry elements may remain unidentified.
Molecule has the following symmetry elements: (C3) 3*(C2) (S3) 4*(sigma) 
It seems to be the D3h point group
   9:  0.00  10:  0.01  11:  0.01  12:  1.59  13:  0.97  14:  0.96  15:  0.00
 Raman intensities (amu)
   1:  0.00   2:  0.00   3:  0.00   4:  0.00   5:  0.00   6:  0.00   7:  0.00   8:  0.00
   9:  0.00  10:  0.00  11:  0.00  12:  0.00  13:  0.00  14:  0.00  15:  0.00
 output can be read by thermo (or use thermo option).
 writing <g98.out> molden fake output.
 recommended (thermochemical) frequency scaling factor: 1.0
           -------------------------------------------------
          |             Thermodynamic Functions             |
           -------------------------------------------------

d3h symmetry found (for desy threshold:  0.10E+00) used in thermo

          ...................................................
          :                      SETUP                      :
          :.................................................:
          :  # frequencies                           9      :
          :  # imaginary freq.                       0      :
          :  linear?                             false      :
          :  only rotor calc.                    false      :
          :  symmetry                              d3h      :
          :  rotational number                       6      :
          :  scaling factor                  1.0000000      :
          :  rotor cutoff                   50.0000000 cm⁻¹ :
          :  imag. cutoff                  -20.0000000 cm⁻¹ :
          :.................................................:

    mode    ω/cm⁻¹     T·S(HO)/kcal·mol⁻¹    T·S(FR)/kcal·mol⁻¹   T·S(vib)
   ------------------------------------------------------------------------
   ------------------------------------------------------------------------

   temp. (K)  partition function   enthalpy   heat capacity  entropy
                                   cal/mol     cal/K/mol   cal/K/mol   J/K/mol
 298.15  VIB   1.36                  514.348      5.473      2.338
         ROT  0.360E+04              888.752      2.981     19.256
         INT  0.490E+04             1403.100      8.454     21.594
         TR   0.450E+27             1481.254      4.968     38.181
         TOT                        2884.3543    13.4218    59.7743   250.0955

   temp. (K)  partition function   enthalpy   heat capacity  entropy
                                   cal/mol     cal/K/mol   cal/K/mol   J/K/mol
 120.00  VIB   1.01                   10.921      0.529      0.107
         ROT   920.                  357.707      2.981     16.543
         INT   928.                  368.628      3.510     16.650
         TR   0.115E+27              596.178      4.968     33.661
         TOT                         964.8057     8.4777    50.3113   210.5026

   temp. (K)  partition function   enthalpy   heat capacity  entropy
                                   cal/mol     cal/K/mol   cal/K/mol   J/K/mol
 100.00  VIB   1.00                    3.459      0.237      0.040
         ROT   700.                  298.089      2.981     16.000
         INT   702.                  301.548      3.218     16.039
         TR   0.875E+26              496.815      4.968     32.756
         TOT                         798.3632     8.1857    48.7952   204.1593

   temp. (K)  partition function   enthalpy   heat capacity  entropy
                                   cal/mol     cal/K/mol   cal/K/mol   J/K/mol
  80.00  VIB   1.00                    0.633      0.067      0.009
         ROT   501.                  238.471      2.981     15.334
         INT   501.                  239.105      3.048     15.343
         TR   0.626E+26              397.452      4.968     31.648
         TOT                         636.5565     8.0159    46.9911   196.6108

   temp. (K)  partition function   enthalpy   heat capacity  entropy
                                   cal/mol     cal/K/mol   cal/K/mol   J/K/mol
  60.00  VIB   1.00                    0.038      0.007      0.001
         ROT   325.                  178.853      2.981     14.477
         INT   325.                  178.892      2.988     14.477
         TR   0.406E+26              298.089      4.968     30.219
         TOT                         476.9808     7.9562    44.6967   187.0112

   temp. (K)  partition function   enthalpy   heat capacity  entropy
                                   cal/mol     cal/K/mol   cal/K/mol   J/K/mol
  40.00  VIB   1.00                    0.000      0.000     -0.000
         ROT   177.                  119.236      2.981     13.268
         INT   177.                  119.236      2.981     13.268
         TR   0.221E+26              198.726      4.968     28.206
         TOT                         317.9617     7.9491    41.4738   173.5266

   temp. (K)  partition function   enthalpy   heat capacity  entropy
                                   cal/mol     cal/K/mol   cal/K/mol   J/K/mol
  20.00  VIB   1.00                    0.000      0.000     -0.000
         ROT   62.6                   59.618      2.981     11.202
         INT   62.6                   59.618      2.981     11.201
         TR   0.782E+25               99.363      4.968     24.764
         TOT                         158.9808     7.9490    35.9654   150.4794

   temp. (K)  partition function   enthalpy   heat capacity  entropy
                                   cal/mol     cal/K/mol   cal/K/mol   J/K/mol
  10.00  VIB   1.00                    0.000      0.000     -0.001
         ROT   22.1                   29.809      2.981      9.136
         INT   22.1                   29.809      2.981      9.135
         TR   0.277E+25               49.681      4.968     21.322
         TOT                          79.4904     7.9490    30.4570   127.4322

       T/K    H(0)-H(T)+PV         H(T)/Eh          T*S/Eh         G(T)/Eh
   ------------------------------------------------------------------------
    298.15    0.459651E-02    0.231693E-01    0.284007E-01   -0.523135E-02
    120.00    0.153752E-02    0.201103E-01    0.962115E-02    0.104892E-01
    100.00    0.127227E-02    0.198451E-01    0.777602E-02    0.120691E-01
     80.00    0.101442E-02    0.195872E-01    0.599081E-02    0.135964E-01
     60.00    0.760117E-03    0.193329E-01    0.427373E-02    0.150592E-01
     40.00    0.506704E-03    0.190795E-01    0.264371E-02    0.164358E-01
     20.00    0.253352E-03    0.188262E-01    0.114629E-02    0.176799E-01
     10.00    0.126676E-03    0.186995E-01    0.485364E-03    0.182141E-01 (used)
   ------------------------------------------------------------------------

         :::::::::::::::::::::::::::::::::::::::::::::::::::::
         ::                  THERMODYNAMIC                  ::
         :::::::::::::::::::::::::::::::::::::::::::::::::::::
         :: total free energy         -10.229296296286 Eh   ::
         ::.................................................::
         :: total energy              -10.247510429472 Eh   ::
         :: zero point energy           0.018572820930 Eh   ::
         :: G(RRHO) w/o ZPVE           -0.000358687744 Eh   ::
         :: G(RRHO) contrib.            0.018214133187 Eh   ::
         :::::::::::::::::::::::::::::::::::::::::::::::::::::

optimized geometry written to: xtbopt.xyz


           -------------------------------------------------
          | TOTAL ENERGY              -10.247510429472 Eh   |
          | TOTAL ENTHALPY            -10.228810932526 Eh   |
          | TOTAL FREE ENERGY         -10.229296296286 Eh   |
          | GRADIENT NORM               0.000655451061 Eh/α |
          | HOMO-LUMO GAP               2.767515300400 eV   |
           -------------------------------------------------

------------------------------------------------------------------------
 * finished run on 2020/05/12 at 11:44:36.669     
------------------------------------------------------------------------
 total:
 * wall-time:     0 d,  0 h,  0 min,  0.160 sec
 *  cpu-time:     0 d,  0 h,  0 min,  0.160 sec
 * ratio c/w:     0.999 speedup
 SCF:
 * wall-time:     0 d,  0 h,  0 min,  0.005 sec
 *  cpu-time:     0 d,  0 h,  0 min,  0.005 sec
 * ratio c/w:     1.000 speedup
 ANC optimizer:
 * wall-time:     0 d,  0 h,  0 min,  0.027 sec
 *  cpu-time:     0 d,  0 h,  0 min,  0.027 sec
 * ratio c/w:     1.000 speedup
 numerical hessian:
 * wall-time:     0 d,  0 h,  0 min,  0.112 sec
 *  cpu-time:     0 d,  0 h,  0 min,  0.112 sec
 * ratio c/w:     0.999 speedup

