 Entering Gaussian System
 *********************************************
 Gaussian 98:
 frequency output generated by the xtb code
 *********************************************
                         Standard orientation:
 --------------------------------------------------------------------
  Center     Atomic     Atomic              Coordinates (Angstroms)
  Number     Number      Type              X           Y           Z
 --------------------------------------------------------------------
    1          6             0        0.926665   -0.143267   -0.567007
    2          6             0        0.443092   -0.263235    0.790669
    3          6             0       -0.704228   -0.831200    0.117925
    4          6             0       -0.222430    0.974469    0.449078
    5          6             0       -0.443099    0.263234   -0.790665
 --------------------------------------------------------------------
     1 basis functions        1 primitive gaussians
     1 alpha electrons        1 beta electrons

 Harmonic frequencies (cm**-1), IR intensities (KM/Mole),
 Raman scattering activities (A**4/amu), Raman depolarization ratios,
 reduced masses (AMU), force constants (mDyne/A) and normal coordinates:
                      1                      2                      3
                        a                      a                      a 
 Frequencies --   464.8901               465.2278               663.0761
 Red. masses --    12.0107                12.0107                12.0107
 Frc consts  --     0.0000                 0.0000                 0.0000
 IR Inten    --     0.5241                 0.5192                 0.0025
 Raman Activ --     0.0000                 0.0000                 0.0000
 Depolar     --     0.0000                 0.0000                 0.0000
 Atom AN      X      Y      Z        X      Y      Z        X      Y      Z
   1   6     0.11   0.61   0.14     0.20   0.19  -0.05     0.36  -0.06  -0.22
   2   6    -0.19  -0.32   0.00     0.27  -0.16  -0.20    -0.22   0.13  -0.40
   3   6    -0.19  -0.05   0.09    -0.38   0.41   0.35    -0.27  -0.32   0.05
   4   6     0.46   0.08  -0.23    -0.35  -0.28   0.10    -0.09   0.38   0.18
   5   6    -0.19  -0.32   0.00     0.27  -0.16  -0.20     0.22  -0.13   0.40
                      4                      5                      6
                        a                      a                      a 
 Frequencies --   882.6623               882.6886              1123.5380
 Red. masses --    12.0107                12.0107                12.0107
 Frc consts  --     0.0000                 0.0000                 0.0000
 IR Inten    --     0.0056                 0.0102                 1.5937
 Raman Activ --     0.0000                 0.0000                 0.0000
 Depolar     --     0.0000                 0.0000                 0.0000
 Atom AN      X      Y      Z        X      Y      Z        X      Y      Z
   1   6     0.26  -0.15   0.47    -0.07   0.04  -0.13     0.17  -0.10   0.30
   2   6     0.37  -0.19  -0.27    -0.24  -0.44  -0.02    -0.26   0.15  -0.46
   3   6    -0.07   0.04  -0.12     0.26  -0.16   0.47     0.17  -0.10   0.31
   4   6    -0.19   0.11  -0.34    -0.19   0.11  -0.34     0.17  -0.10   0.31
   5   6    -0.37   0.19   0.27     0.24   0.44   0.02    -0.26   0.15  -0.46
                      7                      8                      9
                        a                      a                      a 
 Frequencies --  1136.2567              1136.4343              1397.7521
 Red. masses --    12.0107                12.0107                12.0107
 Frc consts  --     0.0000                 0.0000                 0.0000
 IR Inten    --     0.9669                 0.9619                 0.0014
 Raman Activ --     0.0000                 0.0000                 0.0000
 Depolar     --     0.0000                 0.0000                 0.0000
 Atom AN      X      Y      Z        X      Y      Z        X      Y      Z
   1   6     0.54  -0.05  -0.32    -0.13   0.14   0.12    -0.33   0.05   0.20
   2   6    -0.30   0.16   0.22     0.19   0.35   0.01    -0.25   0.15  -0.44
   3   6     0.03   0.19   0.05    -0.43  -0.47   0.09     0.25   0.29  -0.04
   4   6     0.02  -0.46  -0.17     0.17  -0.37  -0.22     0.08  -0.35  -0.16
   5   6    -0.30   0.16   0.22     0.19   0.35   0.00     0.25  -0.15   0.44
