5
 energy: -10.178269353858 gnorm: 0.000511769630 xtb: 6.2.2 (9d81278992624c895f80dd42a50cac0aa55982e2)
C         1.09424145701475    0.02145122060726   -0.01771175681801
C         0.01738714966844   -0.07717202590463    0.98030197090418
C        -1.09424071029832   -0.02145675854793    0.01772602950232
C         0.00686379691857   -0.81032592818453   -0.55727444459261
C        -0.02425069330345    0.88750349202460   -0.42304179899937
