5
 energy: -8.870726965801 gnorm: 0.000712508311 xtb: 6.2.2 (9d81278992624c895f80dd42a50cac0aa55982e2)
C        -0.51021515904889   -0.27988729252438    0.00180709506171
N         0.71246155777059    0.20696080198678    0.43257391496904
N        -0.61446891816240    0.95063581332784    0.10800970322944
H        -0.98493441354486   -1.20615077033552   -0.22274183878675
H         1.39715693297683    0.32844044754354   -0.31964987447169
