      -----------------------------------------------------------      
     |                   =====================                   |     
     |                           x T B                           |     
     |                   =====================                   |     
     |                         S. Grimme                         |     
     |          Mulliken Center for Theoretical Chemistry        |     
     |                    University of Bonn                     |     
      -----------------------------------------------------------      

   * xtb version 6.2.2 (9d81278992624c895f80dd42a50cac0aa55982e2) compiled by '@Darwin' on 04/03/2020

   xtb is free software: you can redistribute it and/or modify it under
   the terms of the GNU Lesser General Public License as published by
   the Free Software Foundation, either version 3 of the License, or
   (at your option) any later version.
   
   xtb is distributed in the hope that it will be useful,
   but WITHOUT ANY WARRANTY; without even the implied warranty of
   MERCHANTABILITY or FITNESS FOR A PARTICULAR PURPOSE.  See the
   GNU Lesser General Public License for more details.
   
   Cite this work as:
   * S. Grimme, C. Bannwarth, P. Shushkov, J. Chem. Theory Comput., 2017,
     13, 1989-2009. DOI: 10.1021/acs.jctc.7b00118
   * C. Bannwarth, S. Ehlert and S. Grimme., J. Chem. Theory Comput., 2019,
     15, 1652-1671. DOI: 10.1021/acs.jctc.8b01176
   * P. Pracht, E. Caldeweyher, S. Ehlert, S. Grimme, ChemRxiv, 2019, preprint.
     DOI: 10.26434/chemrxiv.8326202.v1
   
   for DFT-D4:
   * E. Caldeweyher, C. Bannwarth and S. Grimme, J. Chem. Phys., 2017,
     147, 034112. DOI: 10.1063/1.4993215
   * E. Caldeweyher, S. Ehlert, A. Hansen, H. Neugebauer, S. Spicher,
     C. Bannwarth and S. Grimme, J. Chem. Phys., 2019, 150, 154122.
     DOI: 10.1063/1.5090222
   
   for sTDA-xTB:
   * S. Grimme and C. Bannwarth, J. Chem. Phys., 2016, 145, 054103.
     DOI: 10.1063/1.4959605
   
   in the mass-spec context:
   * V. Asgeirsson, C. Bauer and S. Grimme, Chem. Sci., 2017, 8, 4879.
     DOI: 10.1039/c7sc00601b
   
   for metadynamics refer to:
   * S. Grimme, J. Chem. Theory Comput., 2019, 155, 2847-2862
     DOI: 10.1021/acs.jctc.9b00143
   
   with help from (in alphabetical order)
   C. Bannwarth, F. Bohle, G. Brandenburg, E. Caldeweyher, M. Checinski,
   S. Dohm, S. Ehlert, S. Ehrlich, F. März, H. Neugebauer, J. Pisarek,
   P. Pracht, P. Shushkov, and S. Spicher.
   
 * started run on 2020/05/12 at 11:45:22.234     

           -------------------------------------------------
          |                Calculation Setup                |
           -------------------------------------------------

          program call               : xtb --input H2C1N2_7_S_0.input H2C1N2_7_S_0.xyz --ohess --molden --namespace H2C1N2_7_S_0 output.out
          calculation namespace      : H2C1N2_7_S_0
          coordinate file            : H2C1N2_7_S_0.xyz
          number of atoms            :                     5
          number of electrons        :                    16
          charge                     :                     0
          spin                       :                   0.0
          first test random number   :      0.97229694228336

   ID    Z sym.   atoms
    1    6 C      1
    2    7 N      2, 3
    3    1 H      4, 5

           -------------------------------------------------
          |                 G F N 2 - x T B                 |
           -------------------------------------------------

        Reference                      10.1021/acs.jctc.8b01176
      * Hamiltonian:
        H0-scaling (s, p, d)           1.850000    2.230000    2.230000
        zeta-weighting                 0.500000
      * Dispersion:
        s8                             2.700000
        a1                             0.520000
        a2                             5.000000
        s9                             5.000000
      * Repulsion:
        kExp                           1.500000    1.000000
        rExp                           1.000000
      * Coulomb:
        alpha                          2.000000
        third order                    shell-resolved
        anisotropic                    true
        a3                             3.000000
        a5                             4.000000
        cn-shift                       1.200000
        cn-exp                         4.000000
        max-rad                        5.000000


          ...................................................
          :                      SETUP                      :
          :.................................................:
          :  # basis functions                  14          :
          :  # atomic orbitals                  14          :
          :  # shells                            8          :
          :  # electrons                        16          :
          :  max. iterations                   250          :
          :  Hamiltonian                  GFN2-xTB          :
          :  restarted?                      false          :
          :  GBSA solvation                  false          :
          :  PC potential                    false          :
          :  electronic temp.          300.0000000     K    :
          :  accuracy                    1.0000000          :
          :  -> integral cutoff          0.2500000E+02      :
          :  -> integral neglect         0.1000000E-07      :
          :  -> SCF convergence          0.1000000E-05 Eh   :
          :  -> wf. convergence          0.1000000E-03 e    :
          :  Broyden damping             0.4000000          :
          ...................................................

 iter      E             dE          RMSdq      gap      omega  full diag
   1     -8.5672124 -0.856721E+01  0.820E+00    0.46       0.0  T
   2     -7.8131384  0.754074E+00  0.141E+01    1.31       1.0  T
   3     -8.7270370 -0.913899E+00  0.433E+00    0.14       1.0  T
   4     -8.5681200  0.158917E+00  0.682E+00    0.45       1.0  T
   5     -8.5347364  0.333836E-01  0.752E+00    0.40       1.0  T
   6     -8.6481329 -0.113396E+00  0.546E+00    0.26       1.0  T
   7     -8.7461819 -0.980490E-01  0.270E+00    0.12       1.0  T
   8     -8.5921710  0.154011E+00  0.663E+00    0.19       1.0  T
   9     -8.6119165 -0.197456E-01  0.622E+00    0.17       1.0  T
  10     -8.7275682 -0.115652E+00  0.361E+00    0.13       1.0  T
  11     -8.7267602  0.808000E-03  0.354E+00    0.13       1.0  T
  12     -8.7716496 -0.448895E-01  0.695E-01    0.08       1.0  T
  13     -8.7677722  0.387746E-02  0.127E+00    0.08       1.0  T
  14     -8.7733988 -0.562665E-02  0.134E-01    0.07       1.0  T
  15     -8.7697150  0.368385E-02  0.992E-01    0.07       1.0  T
  16     -8.7734848 -0.376980E-02  0.389E-02    0.06       1.1  T
  17     -8.7730155  0.469301E-03  0.347E-01    0.07       1.0  T
  18     -8.7734840 -0.468575E-03  0.313E-02    0.06       1.4  T
  19     -8.7734765  0.751415E-05  0.522E-02    0.06       1.0  T
  20     -8.7734869 -0.104055E-04  0.116E-02    0.06       3.9  T
  21     -8.7734874 -0.484337E-06  0.996E-04    0.06      44.9  T
  22     -8.7734874 -0.200913E-08  0.245E-04    0.06     182.5  T

   *** convergence criteria satisfied after 22 iterations ***

         #    Occupation            Energy/Eh            Energy/eV
      -------------------------------------------------------------
         1        2.0000           -0.6674596             -18.1625
         2        2.0000           -0.6193414             -16.8531
         3        2.0000           -0.5779772             -15.7276
         4        2.0000           -0.5554094             -15.1135
         5        2.0000           -0.4914093             -13.3719
         6        2.0000           -0.4850891             -13.1999
         7        2.0000           -0.4339431             -11.8082
         8        1.5568           -0.4122326             -11.2174 (HOMO)
         9        0.4432           -0.4098454             -11.1525 (LUMO)
        10                         -0.3451875              -9.3930
        11                          0.0311180               0.8468
        12                          0.0594422               1.6175
        13                          0.0907170               2.4685
        14                          0.1463126               3.9814
      -------------------------------------------------------------
                  HL-Gap            0.0023873 Eh            0.0650 eV
             Fermi-level           -0.4110390 Eh          -11.1849 eV

 SCC (total)                   0 d,  0 h,  0 min,  0.004 sec
 SCC setup                      ...        0 min,  0.000 sec (  3.004%)
 Dispersion                     ...        0 min,  0.000 sec (  0.371%)
 integral evaluation            ...        0 min,  0.001 sec ( 21.152%)
 zeroth order Hamiltonian       ...        0 min,  0.000 sec (  0.447%)
 iterations                     ...        0 min,  0.002 sec ( 50.652%)
 molecular gradient             ...        0 min,  0.001 sec ( 21.478%)
 printout                       ...        0 min,  0.000 sec (  2.602%)

         :::::::::::::::::::::::::::::::::::::::::::::::::::::
         ::                     SUMMARY                     ::
         :::::::::::::::::::::::::::::::::::::::::::::::::::::
         :: total energy              -8.723452810135 Eh    ::
         :: gradient norm              0.236107719034 Eh/a0 ::
         :: HOMO-LUMO gap              0.064960951107 eV    ::
         ::.................................................::
         :: SCC energy                -8.773487425584 Eh    ::
         :: -> isotropic ES            0.013199469284 Eh    ::
         :: -> anisotropic ES          0.000720352050 Eh    ::
         :: -> anisotropic XC          0.017524213329 Eh    ::
         :: -> dispersion             -0.001403471261 Eh    ::
         :: repulsion energy           0.050034569572 Eh    ::
         :: add. restraining           0.000000000000 Eh    ::
         :::::::::::::::::::::::::::::::::::::::::::::::::::::

      ----------------------------------------------------------- 
     |                   =====================                   |
     |                        A N C O P T                        |
     |                   =====================                   |
     |               Approximate Normal Coordinate               |
     |                Rational Function Optimizer                |
      ----------------------------------------------------------- 

          ...................................................
          :                      SETUP                      :
          :.................................................:
          :   optimization level            normal          :
          :   max. optcycles                   200          :
          :   ANC micro-cycles                  20          :
          :   degrees of freedom                 9          :
          :.................................................:
          :   RF solver                   davidson          :
          :   write xtbopt.log                true          :
          :   linear?                        false          :
          :   energy convergence         0.5000000E-05 Eh   :
          :   grad. convergence          0.1000000E-02 Eh/α :
          :   maximium RF displ.         1.0000000          :
          :   Hlow (freq-cutoff)         0.1000000E-01      :
          :   Hmax (freq-cutoff)         5.0000000          :
          :   S6 in model hess.         20.0000000          :
          ...................................................

generating ANC from model Hessian ...
Using Lindh-Hessian (1995)
 Shifting diagonal of input Hessian by    0.0000000000000000     
 Lowest  eigenvalues of input Hessian
   -0.000000   -0.000000    0.000000    0.000000    0.000000    0.000000
    0.016794    0.043217    0.101116    0.117901    0.193310    0.609040
    0.954048    1.093664    1.257262
 Highest eigenvalues
    0.117901    0.193310    0.609040    0.954048    1.093664    1.257262


........................................................................
.............................. CYCLE    1 ..............................
........................................................................
   1     -8.7734874 -0.877349E+01  0.170E-04    0.06       0.0  T
   2     -8.7734873  0.905061E-07  0.461E-03    0.06       9.7  T
   3     -8.7734874 -0.906254E-07  0.215E-05    0.06    2080.7  T
   4     -8.7734874  0.986944E-11  0.509E-05    0.06     879.0  T
     SCC iter.                  ...        0 min,  0.001 sec
     gradient                   ...        0 min,  0.001 sec
 * total energy  :    -8.7234528 Eh     change       -0.7627481E-09 Eh
   gradient norm :     0.2361084 Eh/α   predicted     0.0000000E+00 (-100.00%)
   displ. norm   :     0.4226382 α      lambda       -0.7801359E-01
   maximum displ.:     0.2393320 α      in ANC's #6, #3, #2, ...

........................................................................
.............................. CYCLE    2 ..............................
........................................................................
   1     -8.8627898 -0.886279E+01  0.224E+00    0.45       0.0  T
   2     -8.6948393  0.167950E+00  0.641E+00    0.47       1.0  T
   3     -8.8167803 -0.121941E+00  0.350E+00    0.47       1.0  T
   4     -8.8641211 -0.473407E-01  0.105E+00    0.36       1.0  T
   5     -8.8657440 -0.162296E-02  0.623E-01    0.32       1.0  T
   6     -8.8670760 -0.133197E-02  0.168E-01    0.31       1.0  T
   7     -8.8670827 -0.677035E-05  0.130E-01    0.30       1.0  T
   8     -8.8670911 -0.839296E-05  0.117E-01    0.30       1.0  T
   9     -8.8671313 -0.401923E-04  0.457E-02    0.29       1.0  T
  10     -8.8671306  0.686470E-06  0.478E-02    0.30       1.0  T
  11     -8.8671384 -0.779835E-05  0.961E-03    0.30       4.7  T
  12     -8.8671388 -0.330949E-06  0.662E-04    0.30      67.6  T
  13     -8.8671388 -0.120210E-08  0.355E-04    0.30     126.0  T
     SCC iter.                  ...        0 min,  0.001 sec
     gradient                   ...        0 min,  0.001 sec
 * total energy  :    -8.7886853 Eh     change       -0.6523252E-01 Eh
   gradient norm :     0.1496909 Eh/α   predicted    -0.4597431E-01 ( -29.52%)
   displ. norm   :     0.7678106 α      lambda       -0.1015606E+00
   maximum displ.:     0.4911323 α      in ANC's #3, #6, #4, ...

........................................................................
.............................. CYCLE    3 ..............................
........................................................................
   1     -9.0076600 -0.900766E+01  0.314E+00    3.73       0.0  T
   2     -9.0093268 -0.166686E-02  0.189E+00    3.59       1.0  T
   3     -9.0079631  0.136370E-02  0.892E-01    3.72       1.0  T
   4     -9.0102117 -0.224860E-02  0.160E-01    3.61       1.0  T
   5     -9.0102362 -0.244999E-04  0.641E-02    3.62       1.0  T
   6     -9.0102382 -0.196312E-05  0.976E-03    3.62       4.6  T
   7     -9.0102382 -0.216800E-07  0.315E-03    3.62      14.2  T
   8     -9.0102382 -0.933013E-08  0.738E-04    3.62      60.6  T
   9     -9.0102382 -0.402839E-09  0.138E-04    3.62     325.1  T
     SCC iter.                  ...        0 min,  0.001 sec
     gradient                   ...        0 min,  0.001 sec
 * total energy  :    -8.8166076 Eh     change       -0.2792222E-01 Eh
   gradient norm :     0.4442399 Eh/α   predicted    -0.8071696E-01 ( 189.08%)
   displ. norm   :     0.4699010 α      lambda       -0.1040163E+00
   maximum displ.:     0.4369519 α      in ANC's #3, #2, #8, ...

........................................................................
.............................. CYCLE    4 ..............................
........................................................................
   1     -8.9429441 -0.894294E+01  0.260E+00    3.31       0.0  T
   2     -8.9460256 -0.308152E-02  0.131E+00    3.65       1.0  T
   3     -8.9461304 -0.104777E-03  0.703E-01    3.50       1.0  T
   4     -8.9466687 -0.538349E-03  0.249E-01    3.54       1.0  T
   5     -8.9468628 -0.194072E-03  0.616E-02    3.57       1.0  T
   6     -8.9468640 -0.120550E-05  0.130E-02    3.56       3.4  T
   7     -8.9468641 -0.752641E-07  0.299E-03    3.56      15.0  T
   8     -8.9468641 -0.678950E-08  0.118E-03    3.56      37.9  T
   9     -8.9468641 -0.793552E-09  0.120E-04    3.56     371.6  T
  10     -8.9468641 -0.986589E-11  0.162E-05    3.56    2758.7  T
     SCC iter.                  ...        0 min,  0.001 sec
     gradient                   ...        0 min,  0.001 sec
 * total energy  :    -8.8565818 Eh     change       -0.3997428E-01 Eh
   gradient norm :     0.0830579 Eh/α   predicted    -0.6349190E-01 (  58.83%)
   displ. norm   :     0.5457913 α      lambda       -0.2628927E-01
   maximum displ.:     0.4967817 α      in ANC's #1, #2, #3, ...

........................................................................
.............................. CYCLE    5 ..............................
........................................................................
   1     -8.9678527 -0.896785E+01  0.179E+00    3.26       0.0  T
   2     -8.9681400 -0.287374E-03  0.116E+00    3.25       1.0  T
   3     -8.9691488 -0.100872E-02  0.739E-01    3.28       1.0  T
   4     -8.9702660 -0.111722E-02  0.764E-02    3.24       1.0  T
   5     -8.9702725 -0.652123E-05  0.379E-02    3.25       1.2  T
   6     -8.9702731 -0.554859E-06  0.586E-03    3.25       7.6  T
   7     -8.9702731 -0.824354E-08  0.176E-03    3.25      25.4  T
   8     -8.9702731 -0.265940E-08  0.515E-04    3.25      86.9  T
   9     -8.9702731 -0.245956E-09  0.508E-05    3.25     881.1  T
     SCC iter.                  ...        0 min,  0.001 sec
     gradient                   ...        0 min,  0.001 sec
 * total energy  :    -8.8635776 Eh     change       -0.6995727E-02 Eh
   gradient norm :     0.0789020 Eh/α   predicted    -0.1706027E-01 ( 143.87%)
   displ. norm   :     0.3007302 α      lambda       -0.1414298E-01
   maximum displ.:     0.1792147 α      in ANC's #4, #1, #2, ...

........................................................................
.............................. CYCLE    6 ..............................
........................................................................
   1     -8.9794733 -0.897947E+01  0.149E+00    3.27       0.0  T
   2     -8.9804656 -0.992278E-03  0.919E-01    3.17       1.0  T
   3     -8.9821348 -0.166921E-02  0.495E-01    3.12       1.0  T
   4     -8.9824194 -0.284583E-03  0.860E-02    3.13       1.0  T
   5     -8.9824355 -0.160881E-04  0.344E-02    3.11       1.3  T
   6     -8.9824357 -0.215421E-06  0.327E-03    3.11      13.7  T
   7     -8.9824357 -0.809940E-08  0.127E-03    3.11      35.2  T
   8     -8.9824357 -0.160060E-08  0.300E-04    3.11     149.1  T
   9     -8.9824357 -0.359979E-10  0.442E-05    3.11    1012.1  T
     SCC iter.                  ...        0 min,  0.001 sec
     gradient                   ...        0 min,  0.001 sec
 * total energy  :    -8.8692749 Eh     change       -0.5697337E-02 Eh
   gradient norm :     0.0418051 Eh/α   predicted    -0.7711033E-02 (  35.34%)
   displ. norm   :     0.2961776 α      lambda       -0.6101869E-02
   maximum displ.:     0.2248626 α      in ANC's #2, #1, #5, ...

........................................................................
.............................. CYCLE    7 ..............................
........................................................................
   1     -8.9693283 -0.896933E+01  0.668E-01    3.39       0.0  T
   2     -8.9694000 -0.717209E-04  0.366E-01    3.35       1.0  T
   3     -8.9693855  0.144977E-04  0.125E-01    3.38       1.0  T
   4     -8.9694160 -0.305012E-04  0.385E-02    3.37       1.2  T
   5     -8.9694187 -0.271401E-05  0.213E-02    3.37       2.1  T
   6     -8.9694191 -0.429904E-06  0.340E-03    3.37      13.2  T
   7     -8.9694191 -0.467811E-08  0.586E-04    3.37      76.3  T
   8     -8.9694191 -0.186228E-09  0.148E-04    3.37     301.6  T
     SCC iter.                  ...        0 min,  0.001 sec
     gradient                   ...        0 min,  0.001 sec
 * total energy  :    -8.8677796 Eh     change        0.1495299E-02 Eh
   gradient norm :     0.0526892 Eh/α   predicted    -0.3318564E-02 (-321.93%)
   displ. norm   :     0.2055119 α      lambda       -0.5391734E-02
   maximum displ.:     0.1629406 α      in ANC's #2, #1, #4, ...

........................................................................
.............................. CYCLE    8 ..............................
........................................................................
   1     -8.9793448 -0.897934E+01  0.365E-01    3.37       0.0  T
   2     -8.9793656 -0.208180E-04  0.218E-01    3.38       1.0  T
   3     -8.9793464  0.192216E-04  0.861E-02    3.39       1.0  T
   4     -8.9793741 -0.276691E-04  0.293E-02    3.39       1.5  T
   5     -8.9793751 -0.101345E-05  0.519E-03    3.39       8.6  T
   6     -8.9793751 -0.267106E-07  0.232E-03    3.39      19.3  T
   7     -8.9793751 -0.149144E-08  0.424E-04    3.39     105.6  T
   8     -8.9793751 -0.999041E-10  0.106E-04    3.39     423.5  T
     SCC iter.                  ...        0 min,  0.001 sec
     gradient                   ...        0 min,  0.001 sec
 * total energy  :    -8.8704779 Eh     change       -0.2698252E-02 Eh
   gradient norm :     0.0134648 Eh/α   predicted    -0.2809727E-02 (   4.13%)
   displ. norm   :     0.1127635 α      lambda       -0.1134232E-02
   maximum displ.:     0.0798281 α      in ANC's #3, #6, #2, ...

........................................................................
.............................. CYCLE    9 ..............................
........................................................................
   1     -8.9784286 -0.897843E+01  0.657E-01    3.01       0.0  T
   2     -8.9785042 -0.756334E-04  0.372E-01    3.04       1.0  T
   3     -8.9784184  0.857719E-04  0.269E-01    3.00       1.0  T
   4     -8.9786164 -0.198034E-03  0.310E-02    3.00       1.4  T
   5     -8.9786167 -0.207700E-06  0.144E-02    3.01       3.1  T
   6     -8.9786167 -0.611752E-07  0.130E-03    3.00      34.5  T
   7     -8.9786167 -0.111765E-08  0.258E-04    3.00     173.1  T
   8     -8.9786167 -0.164935E-10  0.433E-05    3.00    1033.2  T
     SCC iter.                  ...        0 min,  0.001 sec
     gradient                   ...        0 min,  0.001 sec
 * total energy  :    -8.8697381 Eh     change        0.7397905E-03 Eh
   gradient norm :     0.0314398 Eh/α   predicted    -0.5743292E-03 (-177.63%)
   displ. norm   :     0.0842109 α      lambda       -0.2068041E-02
   maximum displ.:     0.0610587 α      in ANC's #3, #2, #6, ...

........................................................................
.............................. CYCLE   10 ..............................
........................................................................
   1     -8.9797461 -0.897975E+01  0.475E-01    3.29       0.0  T
   2     -8.9797985 -0.524402E-04  0.262E-01    3.26       1.0  T
   3     -8.9797558  0.427342E-04  0.178E-01    3.29       1.0  T
   4     -8.9798444 -0.885694E-04  0.247E-02    3.29       1.8  T
   5     -8.9798447 -0.300408E-06  0.118E-02    3.29       3.8  T
   6     -8.9798447 -0.372774E-07  0.108E-03    3.29      41.4  T
   7     -8.9798447 -0.517653E-09  0.234E-04    3.29     191.5  T
   8     -8.9798447 -0.375220E-10  0.417E-05    3.29    1073.0  T
     SCC iter.                  ...        0 min,  0.001 sec
     gradient                   ...        0 min,  0.001 sec
 * total energy  :    -8.8706999 Eh     change       -0.9618053E-03 Eh
   gradient norm :     0.0035456 Eh/α   predicted    -0.1041352E-02 (   8.27%)
   displ. norm   :     0.0107400 α      lambda       -0.2673145E-04
   maximum displ.:     0.0065224 α      in ANC's #5, #3, #6, ...

........................................................................
.............................. CYCLE   11 ..............................
........................................................................
   1     -8.9800367 -0.898004E+01  0.500E-02    3.29       0.0  T
   2     -8.9800376 -0.886843E-06  0.314E-02    3.29       1.4  T
   3     -8.9800388 -0.121234E-05  0.175E-02    3.29       2.6  T
   4     -8.9800392 -0.398804E-06  0.276E-03    3.29      16.2  T
   5     -8.9800392 -0.188306E-07  0.940E-04    3.29      47.6  T
   6     -8.9800392 -0.367729E-09  0.116E-04    3.29     385.4  T
     SCC iter.                  ...        0 min,  0.000 sec
     gradient                   ...        0 min,  0.001 sec
 * total energy  :    -8.8707153 Eh     change       -0.1547031E-04 Eh
   gradient norm :     0.0022569 Eh/α   predicted    -0.1336760E-04 ( -13.59%)
   displ. norm   :     0.0100572 α      lambda       -0.1379790E-04
   maximum displ.:     0.0065290 α      in ANC's #1, #6, #7, ...

........................................................................
.............................. CYCLE   12 ..............................
........................................................................
   1     -8.9802133 -0.898021E+01  0.328E-02    3.29       0.0  T
   2     -8.9802137 -0.345057E-06  0.202E-02    3.28       2.2  T
   3     -8.9802138 -0.189963E-06  0.121E-02    3.28       3.7  T
   4     -8.9802141 -0.208952E-06  0.260E-03    3.28      17.2  T
   5     -8.9802141 -0.169985E-07  0.934E-04    3.28      47.9  T
   6     -8.9802141 -0.267192E-09  0.766E-05    3.28     583.8  T
     SCC iter.                  ...        0 min,  0.000 sec
     gradient                   ...        0 min,  0.001 sec
 * total energy  :    -8.8707247 Eh     change       -0.9336711E-05 Eh
   gradient norm :     0.0010265 Eh/α   predicted    -0.6900881E-05 ( -26.09%)
   displ. norm   :     0.0098911 α      lambda       -0.4369902E-05
   maximum displ.:     0.0048714 α      in ANC's #1, #6, #4, ...

........................................................................
.............................. CYCLE   13 ..............................
........................................................................
   1     -8.9803977 -0.898040E+01  0.295E-02    3.29       0.0  T
   2     -8.9803979 -0.168753E-06  0.164E-02    3.29       2.7  T
   3     -8.9803979  0.914067E-08  0.484E-03    3.29       9.2  T
   4     -8.9803979 -0.323789E-07  0.199E-03    3.29      22.4  T
   5     -8.9803979 -0.100743E-07  0.678E-04    3.29      65.9  T
   6     -8.9803979 -0.524150E-10  0.475E-05    3.29     942.3  T
     SCC iter.                  ...        0 min,  0.000 sec
     gradient                   ...        0 min,  0.001 sec
 * total energy  :    -8.8707270 Eh     change       -0.2293269E-05 Eh
   gradient norm :     0.0006931 Eh/α   predicted    -0.2183838E-05 (  -4.77%)
   displ. norm   :     0.0022876 α      lambda       -0.5641924E-06
   maximum displ.:     0.0014083 α      in ANC's #1, #4, #7, ...

   *** GEOMETRY OPTIMIZATION CONVERGED AFTER 13 ITERATIONS ***

------------------------------------------------------------------------
 total energy gain   :        -0.1472742 Eh      -92.4159 kcal/mol
 total RMSD          :         0.7151188 a0        0.3784 Å
 total power (kW/mol):       -29.7437110 (step)********** (real)
------------------------------------------------------------------------

 ANCopt (total)                0 d,  0 h,  0 min,  0.030 sec
 optimizer setup                ...        0 min,  0.000 sec (  0.329%)
 model hessian                  ...        0 min,  0.000 sec (  0.466%)
 ANC generation                 ...        0 min,  0.000 sec (  0.214%)
 coordinate transformation      ...        0 min,  0.000 sec (  0.096%)
 single point calculation       ...        0 min,  0.029 sec ( 94.993%)
 optimization log               ...        0 min,  0.000 sec (  1.227%)
 hessian update                 ...        0 min,  0.000 sec (  0.108%)
 rational function              ...        0 min,  0.000 sec (  1.154%)

================
 final structure:
================
5
 xtb: 6.2.2 (9d81278992624c895f80dd42a50cac0aa55982e2)
C        -0.51021369986030   -0.27988996715131    0.00180482557979
N         0.71245896414444    0.20696377743537    0.43257676314322
N        -0.61447427269270    0.95063240745288    0.10800921747696
H        -0.98492732061900   -1.20615553865783   -0.22274738197192
H         1.39715632902756    0.32844832092090   -0.31964442422804

 Bond Distances (Angstroems)
 ---------------------------
C1-N2=1.3847         C1-N3=1.2395         C1-H4=1.0648         N2-C1=1.3847         N2-N3=1.5554         N2-H5=1.0244         
N3-C1=1.2395         N3-N2=1.5554         H4-C1=1.0648         H5-N2=1.0244         
 C  H  Rav=1.0648 sigma=0.0000  Rmin=1.0648  Rmax=1.0648     1
 N  H  Rav=1.0244 sigma=0.0000  Rmin=1.0244  Rmax=1.0244     1
 N  C  Rav=1.3121 sigma=0.0726  Rmin=1.2395  Rmax=1.3847     2
 N  N  Rav=1.5554 sigma=0.0000  Rmin=1.5554  Rmax=1.5554     1

 selected bond angles (degree)
 --------------------
N3-C1-N2= 72.46                H4-C1-N2=139.92                H4-C1-N3=147.59                N3-N2-C1= 49.45                
H5-N2-C1=113.79                H5-N2-N3=111.12                N2-N3-C1= 58.09                

 selected dihedral angles (degree)
 ---------------------------------
N3-N2-C1-H4=182.03            H5-N2-C1-N3=261.89            H5-N2-C1-H4= 83.92            N2-N3-C1-H4=177.56            
C1-N3-N2-H5=103.81            
           -------------------------------------------------
          |                Final Singlepoint                |
           -------------------------------------------------

          ...................................................
          :                      SETUP                      :
          :.................................................:
          :  # basis functions                  14          :
          :  # atomic orbitals                  14          :
          :  # shells                            8          :
          :  # electrons                        16          :
          :  max. iterations                   250          :
          :  Hamiltonian                  GFN2-xTB          :
          :  restarted?                      false          :
          :  GBSA solvation                  false          :
          :  PC potential                    false          :
          :  electronic temp.          300.0000000     K    :
          :  accuracy                    1.0000000          :
          :  -> integral cutoff          0.2500000E+02      :
          :  -> integral neglect         0.1000000E-07      :
          :  -> SCF convergence          0.1000000E-05 Eh   :
          :  -> wf. convergence          0.1000000E-03 e    :
          :  Broyden damping             0.4000000          :
          ...................................................

 iter      E             dE          RMSdq      gap      omega  full diag
   1     -8.9803979 -0.898040E+01  0.947E-06    3.29       0.0  T
   2     -8.9803979 -0.266454E-13  0.464E-06    3.29    9639.4  T
   3     -8.9803979 -0.124345E-13  0.993E-07    3.29   45043.0  T

   *** convergence criteria satisfied after 3 iterations ***

         #    Occupation            Energy/Eh            Energy/eV
      -------------------------------------------------------------
         1        2.0000           -0.7279816             -19.8094
         2        2.0000           -0.6184235             -16.8282
         3        2.0000           -0.6061008             -16.4928
         4        2.0000           -0.5691970             -15.4886
         5        2.0000           -0.5152652             -14.0211
         6        2.0000           -0.4924259             -13.3996
         7        2.0000           -0.4497949             -12.2395
         8        2.0000           -0.4001898             -10.8897 (HOMO)
         9                         -0.2793057              -7.6003 (LUMO)
        10                         -0.1775542              -4.8315
        11                          0.0211861               0.5765
        12                          0.1236919               3.3658
        13                          0.1433436               3.9006
        14                          0.7265096              19.7693
      -------------------------------------------------------------
                  HL-Gap            0.1208840 Eh            3.2894 eV
             Fermi-level           -0.3397478 Eh           -9.2450 eV

 SCC (total)                   0 d,  0 h,  0 min,  0.002 sec
 SCC setup                      ...        0 min,  0.000 sec (  2.756%)
 Dispersion                     ...        0 min,  0.000 sec (  0.519%)
 integral evaluation            ...        0 min,  0.001 sec ( 40.284%)
 zeroth order Hamiltonian       ...        0 min,  0.000 sec (  0.618%)
 iterations                     ...        0 min,  0.000 sec ( 12.658%)
 molecular gradient             ...        0 min,  0.001 sec ( 39.901%)
 printout                       ...        0 min,  0.000 sec (  2.744%)

         :::::::::::::::::::::::::::::::::::::::::::::::::::::
         ::                     SUMMARY                     ::
         :::::::::::::::::::::::::::::::::::::::::::::::::::::
         :: total energy              -8.870726965801 Eh    ::
         :: gradient norm              0.000712508311 Eh/a0 ::
         :: HOMO-LUMO gap              3.289421623901 eV    ::
         ::.................................................::
         :: SCC energy                -8.980397897488 Eh    ::
         :: -> isotropic ES            0.012854074223 Eh    ::
         :: -> anisotropic ES          0.000807740697 Eh    ::
         :: -> anisotropic XC          0.019412053024 Eh    ::
         :: -> dispersion             -0.001449076562 Eh    ::
         :: repulsion energy           0.109670905532 Eh    ::
         :: add. restraining           0.000000000000 Eh    ::
         :::::::::::::::::::::::::::::::::::::::::::::::::::::

           ------------------------------------------------- 
          |                Numerical Hessian                |
           ------------------------------------------------- 
step length          :   0.00500
SCC accuracy         :   0.30000
Hessian scale factor :   1.00000
frozen atoms in %    :   0.00000    0
RMS gradient         :   0.00071
estimated CPU  time      0.00 min
estimated wall time      0.00 min

writing file <hessian>.

 projected vibrational frequencies (cm-1)
eigval :       -0.00    -0.00    -0.00    -0.00     0.00     0.00
eigval :      696.05   782.66   930.43  1038.88  1166.94  1256.28
eigval :     1820.26  3211.29  3220.05
           -------------------------------------------------
          |                Property Printout                |
           -------------------------------------------------

    * Orbital Energies and Occupations

         #    Occupation            Energy/Eh            Energy/eV
      -------------------------------------------------------------
         1        2.0000           -0.7279816             -19.8094
         2        2.0000           -0.6184235             -16.8282
         3        2.0000           -0.6061008             -16.4928
         4        2.0000           -0.5691970             -15.4886
         5        2.0000           -0.5152652             -14.0211
         6        2.0000           -0.4924259             -13.3996
         7        2.0000           -0.4497949             -12.2395
         8        2.0000           -0.4001898             -10.8897 (HOMO)
         9                         -0.2793057              -7.6003 (LUMO)
        10                         -0.1775542              -4.8315
        11                          0.0211862               0.5765
        12                          0.1236919               3.3658
        13                          0.1433436               3.9006
        14                          0.7265096              19.7693
      -------------------------------------------------------------
                  HL-Gap            0.1208840 Eh            3.2894 eV
             Fermi-level           -0.3397478 Eh           -9.2450 eV

     #   Z        covCN         q      C6AA      α(0)
     1   6 C      2.747     0.177    24.185     8.053
     2   7 N      2.721    -0.217    25.732     7.534
     3   7 N      1.863    -0.170    25.480     7.482
     4   1 H      0.927     0.062     2.174     2.306
     5   1 H      0.859     0.148     1.416     1.864

 Mol. C6AA /au·bohr⁶  :        312.603071
 Mol. C8AA /au·bohr⁸  :       6913.412140
 Mol. α(0) /au        :         27.238648


Wiberg/Mayer (AO) data.
largest (>0.10) Wiberg bond orders for each atom
          total WBO             WBO to atom ...
     1  C   3.925        N    3 1.925    N    2 1.046    H    4 0.954
     2  N   2.952        C    1 1.046    H    5 0.948    N    3 0.940
Molecule has no symmetry elements
It seems to be the C1 point group
     3  N   2.917        C    1 1.925    N    2 0.940
     4  H   0.996        C    1 0.954
     5  H   0.978        N    2 0.948

MOs/occ written to file <molden.input>


molecular dipole:
                 x           y           z       tot (Debye)
 q only:        0.009      -0.533      -0.327
   full:        0.029      -0.929      -0.702       2.959
molecular quadrupole (traceless):
                xx          xy          yy          xz          yz          zz
 q only:        0.907       1.254      -0.502      -0.580      -0.192      -0.405
  q+dip:        0.676       2.943      -0.111      -1.721      -0.164      -0.565
   full:        1.074       2.661      -1.030      -1.878      -0.438      -0.044

           -------------------------------------------------
          |                Geometry Summary                 |
           -------------------------------------------------

      molecular mass/u    :       42.0400238
   center of mass at/Å    :       -0.1032352       0.2846759       0.1676212
  moments of inertia/u·Å² :        0.1300198E+02   0.1990775E+02   0.3138112E+02
rotational constants/cm⁻¹ :        0.1296543E+01   0.8467872E+00   0.5371902E+00

 * 4 selected distances

     #   Z        #   Z                                     value/Å
     1   6 C      2   7 N                                 1.3847453 (max)
     1   6 C      3   7 N                                 1.2394898
     1   6 C      4   1 H                                 1.0647744
     2   7 N      5   1 H                                 1.0244050 (min)

 * 3 distinct bonds (by element types)

   Z      Z             #   av. dist./Å        max./Å        min./Å
   1 H    6 C           1     1.0647744     1.0647744     1.0647744
   1 H    7 N           1     1.0244050     1.0244050     1.0244050
   6 C    7 N           2     1.3121175     1.3847453     1.2394898

           -------------------------------------------------
          |               Frequency Printout                |
           -------------------------------------------------
 projected vibrational frequencies (cm-1)
eigval :       -0.00    -0.00    -0.00    -0.00     0.00     0.00
eigval :      696.05   782.66   930.43  1038.88  1166.94  1256.28
eigval :     1820.26  3211.29  3220.05
 reduced masses (amu)
   1: 11.22   2: 10.87   3: 12.65   4: 11.60   5: 12.93   6: 12.48   7: 11.56   8:  4.43
   9:  2.81  10:  3.62  11:  8.66  12:  7.03  13: 12.31  14:  2.11  15:  1.84
 IR intensities (amu)
   1:  0.11   2:  0.17   3:  0.13   4:  0.32   5:  0.11   6:  0.40   7:  0.70   8:  0.22
   9:  0.08  10:  0.30  11:  0.99  12:  0.61  13:  0.72  14:  0.21  15:  0.10
 Raman intensities (amu)
   1:  0.00   2:  0.00   3:  0.00   4:  0.00   5:  0.00   6:  0.00   7:  0.00   8:  0.00
   9:  0.00  10:  0.00  11:  0.00  12:  0.00  13:  0.00  14:  0.00  15:  0.00
 output can be read by thermo (or use thermo option).
 writing <g98.out> molden fake output.
 recommended (thermochemical) frequency scaling factor: 1.0
           -------------------------------------------------
          |             Thermodynamic Functions             |
           -------------------------------------------------

c1  symmetry found (for desy threshold:  0.10E+00) used in thermo

          ...................................................
          :                      SETUP                      :
          :.................................................:
          :  # frequencies                           9      :
          :  # imaginary freq.                       0      :
          :  linear?                             false      :
          :  only rotor calc.                    false      :
          :  symmetry                               c1      :
          :  rotational number                       1      :
          :  scaling factor                  1.0000000      :
          :  rotor cutoff                   50.0000000 cm⁻¹ :
          :  imag. cutoff                  -20.0000000 cm⁻¹ :
          :.................................................:

    mode    ω/cm⁻¹     T·S(HO)/kcal·mol⁻¹    T·S(FR)/kcal·mol⁻¹   T·S(vib)
   ------------------------------------------------------------------------
   ------------------------------------------------------------------------

   temp. (K)  partition function   enthalpy   heat capacity  entropy
                                   cal/mol     cal/K/mol   cal/K/mol   J/K/mol
 298.15  VIB   1.09                  195.390      2.735      0.819
         ROT  0.688E+04              888.752      2.981     20.542
         INT  0.748E+04             1084.142      5.716     21.362
         TR   0.264E+27             1481.254      4.968     37.118
         TOT                        2565.3961    10.6840    58.4801   244.6808

   temp. (K)  partition function   enthalpy   heat capacity  entropy
                                   cal/mol     cal/K/mol   cal/K/mol   J/K/mol
 120.00  VIB   1.00                    0.714      0.053      0.007
         ROT  0.176E+04              357.707      2.981     17.830
         INT  0.176E+04              358.421      3.034     17.836
         TR   0.673E+26              596.178      4.968     32.599
         TOT                         954.5991     8.0018    50.4350   211.0200

   temp. (K)  partition function   enthalpy   heat capacity  entropy
                                   cal/mol     cal/K/mol   cal/K/mol   J/K/mol
 100.00  VIB   1.00                    0.123      0.013      0.001
         ROT  0.134E+04              298.089      2.981     17.286
         INT  0.134E+04              298.212      2.994     17.287
         TR   0.512E+26              496.815      4.968     31.693
         TOT                         795.0271     7.9619    48.9808   204.9359

   temp. (K)  partition function   enthalpy   heat capacity  entropy
                                   cal/mol     cal/K/mol   cal/K/mol   J/K/mol
  80.00  VIB   1.00                    0.009      0.001      0.000
         ROT   957.                  238.471      2.981     16.621
         INT   957.                  238.480      2.982     16.621
         TR   0.367E+26              397.452      4.968     30.585
         TOT                         635.9324     7.9505    47.2064   197.5115

   temp. (K)  partition function   enthalpy   heat capacity  entropy
                                   cal/mol     cal/K/mol   cal/K/mol   J/K/mol
  60.00  VIB   1.00                    0.000      0.000     -0.000
         ROT   622.                  178.853      2.981     15.763
         INT   622.                  178.854      2.981     15.763
         TR   0.238E+26              298.089      4.968     29.157
         TOT                         476.9425     7.9491    44.9201   187.9458

   temp. (K)  partition function   enthalpy   heat capacity  entropy
                                   cal/mol     cal/K/mol   cal/K/mol   J/K/mol
  40.00  VIB   1.00                    0.000      0.000     -0.000
         ROT   338.                  119.236      2.981     14.555
         INT   338.                  119.236      2.981     14.555
         TR   0.130E+26              198.726      4.968     27.143
         TOT                         317.9616     7.9490    41.6980   174.4646

   temp. (K)  partition function   enthalpy   heat capacity  entropy
                                   cal/mol     cal/K/mol   cal/K/mol   J/K/mol
  20.00  VIB   1.00                    0.000      0.000     -0.000
         ROT   120.                   59.618      2.981     12.488
         INT   120.                   59.618      2.981     12.488
         TR   0.458E+25               99.363      4.968     23.701
         TOT                         158.9808     7.9490    36.1898   151.4182

   temp. (K)  partition function   enthalpy   heat capacity  entropy
                                   cal/mol     cal/K/mol   cal/K/mol   J/K/mol
  10.00  VIB   1.00                    0.000      0.000     -0.000
         ROT   42.3                   29.809      2.981     10.422
         INT   42.3                   29.809      2.981     10.422
         TR   0.162E+25               49.681      4.968     20.259
         TOT                          79.4904     7.9490    30.6816   128.3718

       T/K    H(0)-H(T)+PV         H(T)/Eh          T*S/Eh         G(T)/Eh
   ------------------------------------------------------------------------
    298.15    0.408822E-02    0.362624E-01    0.277858E-01    0.847661E-02
    120.00    0.152125E-02    0.336954E-01    0.964479E-02    0.240506E-01
    100.00    0.126696E-02    0.334411E-01    0.780560E-02    0.256355E-01
     80.00    0.101342E-02    0.331876E-01    0.601825E-02    0.271693E-01
     60.00    0.760056E-03    0.329342E-01    0.429509E-02    0.286391E-01
     40.00    0.506704E-03    0.326809E-01    0.265800E-02    0.300229E-01
     20.00    0.253352E-03    0.324275E-01    0.115344E-02    0.312741E-01
     10.00    0.126676E-03    0.323008E-01    0.488942E-03    0.318119E-01 (used)
   ------------------------------------------------------------------------

         :::::::::::::::::::::::::::::::::::::::::::::::::::::
         ::                  THERMODYNAMIC                  ::
         :::::::::::::::::::::::::::::::::::::::::::::::::::::
         :: total free energy          -8.838915061622 Eh   ::
         ::.................................................::
         :: total energy               -8.870726965766 Eh   ::
         :: zero point energy           0.032174170571 Eh   ::
         :: G(RRHO) w/o ZPVE           -0.000362266427 Eh   ::
         :: G(RRHO) contrib.            0.031811904144 Eh   ::
         :::::::::::::::::::::::::::::::::::::::::::::::::::::

optimized geometry written to: xtbopt.xyz


           -------------------------------------------------
          | TOTAL ENERGY               -8.870726965766 Eh   |
          | TOTAL ENTHALPY             -8.838426119180 Eh   |
          | TOTAL FREE ENERGY          -8.838915061622 Eh   |
          | GRADIENT NORM               0.000712561704 Eh/α |
          | HOMO-LUMO GAP               3.289421819559 eV   |
           -------------------------------------------------

------------------------------------------------------------------------
 * finished run on 2020/05/12 at 11:45:22.352     
------------------------------------------------------------------------
 total:
 * wall-time:     0 d,  0 h,  0 min,  0.117 sec
 *  cpu-time:     0 d,  0 h,  0 min,  0.115 sec
 * ratio c/w:     0.985 speedup
 SCF:
 * wall-time:     0 d,  0 h,  0 min,  0.004 sec
 *  cpu-time:     0 d,  0 h,  0 min,  0.004 sec
 * ratio c/w:     1.000 speedup
 ANC optimizer:
 * wall-time:     0 d,  0 h,  0 min,  0.034 sec
 *  cpu-time:     0 d,  0 h,  0 min,  0.033 sec
 * ratio c/w:     0.992 speedup
 numerical hessian:
 * wall-time:     0 d,  0 h,  0 min,  0.060 sec
 *  cpu-time:     0 d,  0 h,  0 min,  0.060 sec
 * ratio c/w:     0.988 speedup

