 Entering Gaussian System, Link 0=g16
 Input=C9O_1X.com
 Output=C9O_1X.log
 Initial command:
 /home/spantaleone/g16/l1.exe "/scratch/cnt0027/pag0797/spantaleone/GAUSSIAN/gauss_scratch/Gau-56021.inp" -scrdir="/scratch/cnt0027/pag0797/spantaleone/GAUSSIAN/gauss_scratch/"
 Entering Link 1 = /home/spantaleone/g16/l1.exe PID=     56022.
  
 Copyright (c) 1988-2017, Gaussian, Inc.  All Rights Reserved.
  
 This is part of the Gaussian(R) 16 program.  It is based on
 the Gaussian(R) 09 system (copyright 2009, Gaussian, Inc.),
 the Gaussian(R) 03 system (copyright 2003, Gaussian, Inc.),
 the Gaussian(R) 98 system (copyright 1998, Gaussian, Inc.),
 the Gaussian(R) 94 system (copyright 1995, Gaussian, Inc.),
 the Gaussian 92(TM) system (copyright 1992, Gaussian, Inc.),
 the Gaussian 90(TM) system (copyright 1990, Gaussian, Inc.),
 the Gaussian 88(TM) system (copyright 1988, Gaussian, Inc.),
 the Gaussian 86(TM) system (copyright 1986, Carnegie Mellon
 University), and the Gaussian 82(TM) system (copyright 1983,
 Carnegie Mellon University). Gaussian is a federally registered
 trademark of Gaussian, Inc.
  
 This software contains proprietary and confidential information,
 including trade secrets, belonging to Gaussian, Inc.
  
 This software is provided under written license and may be
 used, copied, transmitted, or stored only in accord with that
 written license.
  
 The following legend is applicable only to US Government
 contracts under FAR:
  
                    RESTRICTED RIGHTS LEGEND
  
 Use, reproduction and disclosure by the US Government is
 subject to restrictions as set forth in subparagraphs (a)
 and (c) of the Commercial Computer Software - Restricted
 Rights clause in FAR 52.227-19.
  
 Gaussian, Inc.
 340 Quinnipiac St., Bldg. 40, Wallingford CT 06492
  
  
 ---------------------------------------------------------------
 Warning -- This program may not be used in any manner that
 competes with the business of Gaussian, Inc. or will provide
 assistance to any competitor of Gaussian, Inc.  The licensee
 of this program is prohibited from giving any competitor of
 Gaussian, Inc. access to this program.  By using this program,
 the user acknowledges that Gaussian, Inc. is engaged in the
 business of creating and licensing software in the field of
 computational chemistry and represents and warrants to the
 licensee that it is not a competitor of Gaussian, Inc. and that
 it will not use this program in any manner prohibited above.
 ---------------------------------------------------------------
  

 Cite this work as:
 Gaussian 16, Revision B.01,
 M. J. Frisch, G. W. Trucks, H. B. Schlegel, G. E. Scuseria, 
 M. A. Robb, J. R. Cheeseman, G. Scalmani, V. Barone, 
 G. A. Petersson, H. Nakatsuji, X. Li, M. Caricato, A. V. Marenich, 
 J. Bloino, B. G. Janesko, R. Gomperts, B. Mennucci, H. P. Hratchian, 
 J. V. Ortiz, A. F. Izmaylov, J. L. Sonnenberg, D. Williams-Young, 
 F. Ding, F. Lipparini, F. Egidi, J. Goings, B. Peng, A. Petrone, 
 T. Henderson, D. Ranasinghe, V. G. Zakrzewski, J. Gao, N. Rega, 
 G. Zheng, W. Liang, M. Hada, M. Ehara, K. Toyota, R. Fukuda, 
 J. Hasegawa, M. Ishida, T. Nakajima, Y. Honda, O. Kitao, H. Nakai, 
 T. Vreven, K. Throssell, J. A. Montgomery, Jr., J. E. Peralta, 
 F. Ogliaro, M. J. Bearpark, J. J. Heyd, E. N. Brothers, K. N. Kudin, 
 V. N. Staroverov, T. A. Keith, R. Kobayashi, J. Normand, 
 K. Raghavachari, A. P. Rendell, J. C. Burant, S. S. Iyengar, 
 J. Tomasi, M. Cossi, J. M. Millam, M. Klene, C. Adamo, R. Cammi, 
 J. W. Ochterski, R. L. Martin, K. Morokuma, O. Farkas, 
 J. B. Foresman, and D. J. Fox, Gaussian, Inc., Wallingford CT, 2016.
 
 ******************************************
 Gaussian 16:  ES64L-G16RevB.01 20-Dec-2017
                12-Oct-2020 
 ******************************************
 %nosave
 %nproc=24
 Will use up to   24 processors via shared memory.
 %mem=8gb
 %chk=input
 ----------------------------------------------------------------
 #P M062X/cc-pvtz nosymm opt(noeigentest) optcyc=120 freq scf=xqc
 ----------------------------------------------------------------
 1/6=120,11=1,18=20,19=15,26=3,38=1/1,3;
 2/9=110,12=2,15=1,17=6,18=5,40=1/2;
 3/5=16,6=1,11=2,25=1,30=1,71=1,74=-55/1,2,3;
 4//1;
 5/5=2,8=3,13=1,38=5/2,8;
 6/7=2,8=2,9=2,10=2,28=1/1;
 7/30=1/1,2,3,16;
 1/6=120,11=1,18=20,19=15,26=3/3(2);
 2/9=110,15=1/2;
 99//99;
 2/9=110,15=1/2;
 3/5=16,6=1,11=2,25=1,30=1,71=1,74=-55/1,2,3;
 4/5=5,16=3,69=1/1;
 5/5=2,8=3,13=1,38=5/2,8;
 7/30=1/1,2,3,16;
 1/6=120,11=1,18=20,19=15,26=3/3(-5);
 2/9=110,15=1/2;
 6/7=2,8=2,9=2,10=2,19=2,28=1/1;
 99/9=1/99;
 Leave Link    1 at Mon Oct 12 17:22:51 2020, MaxMem=  1073741824 cpu:               1.5 elap:               0.1
 (Enter /home/spantaleone/g16/l101.exe)
 -----
 Title
 -----
 Symbolic Z-matrix:
 Charge =  0 Multiplicity = 1
 C
 C                    1    B1
 C                    2    B2       1    A2
 C                    3    B3       2    A3       1    D3       0
 C                    4    B4       3    A4       2    D4       0
 C                    5    B5       4    A5       3    D5       0
 O                    6    B6       5    A6       4    D6       0
 C                    1    B7       2    A7       3    D7       0
 C                    8    B8       1    A8       2    D8       0
 C                    9    B9       8    A9       1    D9       0
       Variables:
  B1                    1.28207                  
  B2                    1.28205                  
  A2                  179.97438                  
  B3                    1.28216                  
  A3                  179.97438                  
  D3                    0.                       
  B4                    1.28197                  
  A4                  179.97438                  
  D4                    0.                       
  B5                    1.28204                  
  A5                  179.97438                  
  D5                  360.                       
  B6                    1.1963                   
  A6                  179.97438                  
  D6                  360.                       
  B7                    1.28195                  
  A7                  179.97438                  
  D7                  360.                       
  B8                    1.28188                  
  A8                  179.97438                  
  D8                  360.                       
  B9                    1.30535                  
  A9                  179.97438                  
  D9                  360.                       
 
 ITRead=  0  0  0  0  0  0  0  0  0  0
 MicOpt= -1 -1 -1 -1 -1 -1 -1 -1 -1 -1
 NAtoms=     10 NQM=       10 NQMF=       0 NMMI=      0 NMMIF=      0
                NMic=       0 NMicF=      0.
                    Isotopes and Nuclear Properties:
 (Nuclear quadrupole moments (NQMom) in fm**2, nuclear magnetic moments (NMagM)
  in nuclear magnetons)

  Atom         1           2           3           4           5           6           7           8           9          10
 IAtWgt=          12          12          12          12          12          12          16          12          12          12
 AtmWgt=  12.0000000  12.0000000  12.0000000  12.0000000  12.0000000  12.0000000  15.9949146  12.0000000  12.0000000  12.0000000
 NucSpn=           0           0           0           0           0           0           0           0           0           0
 AtZEff=  -0.0000000  -0.0000000  -0.0000000  -0.0000000  -0.0000000  -0.0000000  -0.0000000  -0.0000000  -0.0000000  -0.0000000
 NQMom=    0.0000000   0.0000000   0.0000000   0.0000000   0.0000000   0.0000000   0.0000000   0.0000000   0.0000000   0.0000000
 NMagM=    0.0000000   0.0000000   0.0000000   0.0000000   0.0000000   0.0000000   0.0000000   0.0000000   0.0000000   0.0000000
 AtZNuc=   6.0000000   6.0000000   6.0000000   6.0000000   6.0000000   6.0000000   8.0000000   6.0000000   6.0000000   6.0000000
 Leave Link  101 at Mon Oct 12 17:22:52 2020, MaxMem=  1073741824 cpu:              10.2 elap:               0.4
 (Enter /home/spantaleone/g16/l103.exe)

 GradGradGradGradGradGradGradGradGradGradGradGradGradGradGradGradGradGrad
 Berny optimization.
 Initialization pass.
                           ----------------------------
                           !    Initial Parameters    !
                           ! (Angstroms and Degrees)  !
 --------------------------                            --------------------------
 ! Name  Definition              Value          Derivative Info.                !
 --------------------------------------------------------------------------------
 ! R1    R(1,2)                  1.2821         estimate D2E/DX2                !
 ! R2    R(1,8)                  1.2819         estimate D2E/DX2                !
 ! R3    R(2,3)                  1.2821         estimate D2E/DX2                !
 ! R4    R(3,4)                  1.2822         estimate D2E/DX2                !
 ! R5    R(4,5)                  1.282          estimate D2E/DX2                !
 ! R6    R(5,6)                  1.282          estimate D2E/DX2                !
 ! R7    R(6,7)                  1.1963         estimate D2E/DX2                !
 ! R8    R(8,9)                  1.2819         estimate D2E/DX2                !
 ! R9    R(9,10)                 1.3054         estimate D2E/DX2                !
 ! A1    L(2,1,8,-2,-1)        180.0256         estimate D2E/DX2                !
 ! A2    L(1,2,3,-2,-1)        179.9744         estimate D2E/DX2                !
 ! A3    L(2,3,4,-2,-1)        179.9744         estimate D2E/DX2                !
 ! A4    L(3,4,5,-2,-1)        179.9744         estimate D2E/DX2                !
 ! A5    L(4,5,6,-2,-1)        179.9744         estimate D2E/DX2                !
 ! A6    L(5,6,7,-2,-1)        179.9744         estimate D2E/DX2                !
 ! A7    L(1,8,9,-2,-1)        180.0256         estimate D2E/DX2                !
 ! A8    L(8,9,10,-2,-1)       180.0256         estimate D2E/DX2                !
 ! A9    L(2,1,8,-1,-2)        180.0            estimate D2E/DX2                !
 ! A10   L(1,2,3,-1,-2)        180.0            estimate D2E/DX2                !
 ! A11   L(2,3,4,-1,-2)        180.0            estimate D2E/DX2                !
 ! A12   L(3,4,5,-1,-2)        180.0            estimate D2E/DX2                !
 ! A13   L(4,5,6,-1,-2)        180.0            estimate D2E/DX2                !
 ! A14   L(5,6,7,-1,-2)        180.0            estimate D2E/DX2                !
 ! A15   L(1,8,9,-1,-2)        180.0            estimate D2E/DX2                !
 ! A16   L(8,9,10,-1,-2)       180.0            estimate D2E/DX2                !
 --------------------------------------------------------------------------------
 Trust Radius=3.00D-01 FncErr=1.00D-07 GrdErr=1.00D-06 EigMax=2.50D+02 EigMin=1.00D-04
 Number of steps in this run=    100 maximum allowed number of steps=    100.
 GradGradGradGradGradGradGradGradGradGradGradGradGradGradGradGradGradGrad

 Leave Link  103 at Mon Oct 12 17:22:52 2020, MaxMem=  1073741824 cpu:               0.3 elap:               0.0
 (Enter /home/spantaleone/g16/l202.exe)
                          Input orientation:                          
 ---------------------------------------------------------------------
 Center     Atomic      Atomic             Coordinates (Angstroms)
 Number     Number       Type             X           Y           Z
 ---------------------------------------------------------------------
      1          6           0        0.000000    0.000000    0.000000
      2          6           0        0.000000    0.000000    1.282070
      3          6           0        0.000573    0.000000    2.564120
      4          6           0        0.001720    0.000000    3.846279
      5          6           0        0.003440    0.000000    5.128248
      6          6           0        0.005733    0.000000    6.410286
      7          8           0        0.008407    0.000000    7.606583
      8          6           0        0.000573    0.000000   -1.281950
      9          6           0        0.001720    0.000000   -2.563829
     10          6           0        0.003471    0.000000   -3.869178
 ---------------------------------------------------------------------
                    Distance matrix (angstroms):
                    1          2          3          4          5
     1  C    0.000000
     2  C    1.282070   0.000000
     3  C    2.564120   1.282050   0.000000
     4  C    3.846280   2.564210   1.282160   0.000000
     5  C    5.128249   3.846180   2.564130   1.281970   0.000000
     6  C    6.410289   5.128219   3.846170   2.564010   1.282040
     7  O    7.606588   6.324519   5.042469   3.760310   2.478340
     8  C    1.281950   2.564020   3.846070   5.128229   6.410199
     9  C    2.563830   3.845900   5.127949   6.410109   7.692078
    10  C    3.869180   5.151249   6.433299   7.715458   8.997426
                    6          7          8          9         10
     6  C    0.000000
     7  O    1.196300   0.000000
     8  C    7.692238   8.888536   0.000000
     9  C    8.974116  10.170415   1.281880   0.000000
    10  C   10.279465  11.475762   2.587230   1.305350   0.000000
 Symmetry turned off by external request.
 This structure is nearly, but not quite of a higher symmetry.
 Consider Symm=Loose if the higher symmetry is desired.
 Stoichiometry    C9O
 Framework group  CS[SG(C9O)]
 Deg. of freedom    17
 Full point group                 CS      NOp   2
 Rotational constants (GHZ):      915683.2176701           0.2897888           0.2897887
 Leave Link  202 at Mon Oct 12 17:22:52 2020, MaxMem=  1073741824 cpu:               0.4 elap:               0.0
 (Enter /home/spantaleone/g16/l301.exe)
 Standard basis: CC-pVTZ (5D, 7F)
 Ernie: Thresh=  0.10000D-02 Tol=  0.10000D-05 Strict=F.
 Ernie:  30 primitive shells out of 260 were deleted.
   300 basis functions,   520 primitive gaussians,   350 cartesian basis functions
    31 alpha electrons       31 beta electrons
       nuclear repulsion energy       302.3912292797 Hartrees.
 IExCor= 4336 DFT=T Ex+Corr=M062X ExCW=0 ScaHFX=  0.540000
 ScaDFX=  1.000000  1.000000  1.000000  1.000000 ScalE2=  1.000000  1.000000
 IRadAn=      5 IRanWt=     -1 IRanGd=            0 ICorTp=0 IEmpDi=  4
 NAtoms=   10 NActive=   10 NUniq=   10 SFac= 1.00D+00 NAtFMM=   60 NAOKFM=F Big=F
 Integral buffers will be    131072 words long.
 Raffenetti 2 integral format.
 Two-electron integral symmetry is turned off.
 Leave Link  301 at Mon Oct 12 17:22:52 2020, MaxMem=  1073741824 cpu:               1.5 elap:               0.1
 (Enter /home/spantaleone/g16/l302.exe)
 NPDir=0 NMtPBC=     1 NCelOv=     1 NCel=       1 NClECP=     1 NCelD=      1
         NCelK=      1 NCelE2=     1 NClLst=     1 CellRange=     0.0.
 One-electron integrals computed using PRISM.
 NBasis=   300 RedAO= T EigKep=  1.08D-05  NBF=   300
 NBsUse=   300 1.00D-06 EigRej= -1.00D+00 NBFU=   300
 Precomputing XC quadrature grid using
 IXCGrd= 4 IRadAn=           5 IRanWt=          -1 IRanGd=           0 AccXCQ= 0.00D+00.
 Generated NRdTot=       0 NPtTot=           0 NUsed=           0 NTot=          32
 NSgBfM=   345   345   345   345   345 MxSgAt=    10 MxSgA2=    10.
 Leave Link  302 at Mon Oct 12 17:22:52 2020, MaxMem=  1073741824 cpu:               9.3 elap:               0.4
 (Enter /home/spantaleone/g16/l303.exe)
 DipDrv:  MaxL=1.
 Leave Link  303 at Mon Oct 12 17:22:53 2020, MaxMem=  1073741824 cpu:               1.5 elap:               0.1
 (Enter /home/spantaleone/g16/l401.exe)
 ExpMin= 1.21D-01 ExpMax= 1.53D+04 ExpMxC= 5.22D+02 IAcc=3 IRadAn=         5 AccDes= 0.00D+00
 Harris functional with IExCor= 1009 and IRadAn=       5 diagonalized for initial guess.
 HarFok:  IExCor= 1009 AccDes= 0.00D+00 IRadAn=         5 IDoV= 1 UseB2=F ITyADJ=14
 ICtDFT=  3500011 ScaDFX=  1.000000  1.000000  1.000000  1.000000
 FoFCou: FMM=F IPFlag=           0 FMFlag=      100000 FMFlg1=           0
         NFxFlg=           0 DoJE=T BraDBF=F KetDBF=T FulRan=T
         wScrn=  0.000000 ICntrl=       500 IOpCl=  0 I1Cent=   200000004 NGrid=           0
         NMat0=    1 NMatS0=      1 NMatT0=    0 NMatD0=    1 NMtDS0=    0 NMtDT0=    0
 Symmetry not used in FoFCou.
 Harris En= -417.624548120538    
 JPrj=0 DoOrth=F DoCkMO=F.
 Leave Link  401 at Mon Oct 12 17:22:53 2020, MaxMem=  1073741824 cpu:              17.0 elap:               0.7
 (Enter /home/spantaleone/g16/l502.exe)
 Keep R1 ints in memory in canonical form, NReq=1047054361.
 FoFCou: FMM=F IPFlag=           0 FMFlag=           0 FMFlg1=           0
         NFxFlg=           0 DoJE=F BraDBF=F KetDBF=F FulRan=T
         wScrn=  0.000000 ICntrl=       600 IOpCl=  0 I1Cent=           0 NGrid=           0
         NMat0=    1 NMatS0=  45150 NMatT0=    0 NMatD0=    1 NMtDS0=    0 NMtDT0=    0
 Symmetry not used in FoFCou.
 Two-electron integral symmetry not used.
 Closed shell SCF:
 Using DIIS extrapolation, IDIIS=  1040.
 NGot=  1073741824 LenX=    54202413 LenY=    54079472
 Requested convergence on RMS density matrix=1.00D-08 within  32 cycles.
 Requested convergence on MAX density matrix=1.00D-06.
 Requested convergence on             energy=1.00D-06.
 No special actions if energy rises.
 Integral accuracy reduced to 1.0D-05 until final iterations.

 Cycle   1  Pass 0  IDiag  1:
 E= -417.623673386378    
 DIIS: error= 3.07D-02 at cycle   1 NSaved=   1.
 NSaved= 1 IEnMin= 1 EnMin= -417.623673386378     IErMin= 1 ErrMin= 3.07D-02
 ErrMax= 3.07D-02  0.00D+00 EMaxC= 1.00D-01 BMatC= 2.23D-01 BMatP= 2.23D-01
 IDIUse=3 WtCom= 6.93D-01 WtEn= 3.07D-01
 Coeff-Com:  0.100D+01
 Coeff-En:   0.100D+01
 Coeff:      0.100D+01
 Gap=     0.145 Goal=   None    Shift=    0.000
 GapD=    0.145 DampG=1.000 DampE=0.500 DampFc=0.5000 IDamp=-1.
 Damping current iteration by 5.00D-01
 RMSDP=1.34D-02 MaxDP=9.30D-01              OVMax= 3.65D-01

 Cycle   2  Pass 0  IDiag  1:
 E= -417.680229601301     Delta-E=       -0.056556214923 Rises=F Damp=T
 DIIS: error= 1.47D-02 at cycle   2 NSaved=   2.
 NSaved= 2 IEnMin= 2 EnMin= -417.680229601301     IErMin= 2 ErrMin= 1.47D-02
 ErrMax= 1.47D-02  0.00D+00 EMaxC= 1.00D-01 BMatC= 3.80D-02 BMatP= 2.23D-01
 IDIUse=3 WtCom= 8.53D-01 WtEn= 1.47D-01
 Coeff-Com: -0.588D-01 0.106D+01
 Coeff-En:   0.240D+00 0.760D+00
 Coeff:     -0.148D-01 0.101D+01
 Gap=     0.195 Goal=   None    Shift=    0.000
 RMSDP=5.29D-03 MaxDP=3.24D-01 DE=-5.66D-02 OVMax= 4.50D-01

 Cycle   3  Pass 0  IDiag  1:
 E= -417.634169369638     Delta-E=        0.046060231663 Rises=F Damp=F
 DIIS: error= 4.13D-02 at cycle   3 NSaved=   3.
 NSaved= 3 IEnMin= 2 EnMin= -417.680229601301     IErMin= 2 ErrMin= 1.47D-02
 ErrMax= 4.13D-02  0.00D+00 EMaxC= 1.00D-01 BMatC= 9.52D-02 BMatP= 3.80D-02
 IDIUse=2 WtCom= 0.00D+00 WtEn= 1.00D+00
 Coeff-En:   0.000D+00 0.599D+00 0.401D+00
 Coeff:      0.000D+00 0.599D+00 0.401D+00
 Gap=     0.180 Goal=   None    Shift=    0.000
 RMSDP=5.06D-03 MaxDP=3.44D-01 DE= 4.61D-02 OVMax= 3.33D-01

 Cycle   4  Pass 0  IDiag  1:
 E= -417.766962876298     Delta-E=       -0.132793506660 Rises=F Damp=F
 DIIS: error= 1.86D-02 at cycle   4 NSaved=   4.
 NSaved= 4 IEnMin= 4 EnMin= -417.766962876298     IErMin= 2 ErrMin= 1.47D-02
 ErrMax= 1.86D-02  0.00D+00 EMaxC= 1.00D-01 BMatC= 2.18D-02 BMatP= 3.80D-02
 IDIUse=3 WtCom= 8.14D-01 WtEn= 1.86D-01
 Coeff-Com: -0.242D-01 0.186D+00 0.309D+00 0.529D+00
 Coeff-En:   0.000D+00 0.000D+00 0.245D+00 0.755D+00
 Coeff:     -0.197D-01 0.152D+00 0.297D+00 0.571D+00
 Gap=     0.157 Goal=   None    Shift=    0.000
 RMSDP=3.22D-03 MaxDP=2.25D-01 DE=-1.33D-01 OVMax= 1.36D-01

 Cycle   5  Pass 0  IDiag  1:
 E= -417.803264886792     Delta-E=       -0.036302010494 Rises=F Damp=F
 DIIS: error= 5.18D-03 at cycle   5 NSaved=   5.
 NSaved= 5 IEnMin= 5 EnMin= -417.803264886792     IErMin= 5 ErrMin= 5.18D-03
 ErrMax= 5.18D-03  0.00D+00 EMaxC= 1.00D-01 BMatC= 1.70D-03 BMatP= 2.18D-02
 IDIUse=3 WtCom= 9.48D-01 WtEn= 5.18D-02
 Coeff-Com: -0.535D-02 0.267D-01 0.697D-01 0.245D+00 0.664D+00
 Coeff-En:   0.000D+00 0.000D+00 0.000D+00 0.301D-01 0.970D+00
 Coeff:     -0.507D-02 0.253D-01 0.661D-01 0.234D+00 0.680D+00
 Gap=     0.154 Goal=   None    Shift=    0.000
 RMSDP=2.50D-04 MaxDP=1.01D-02 DE=-3.63D-02 OVMax= 3.04D-02

 Cycle   6  Pass 0  IDiag  1:
 E= -417.804461334842     Delta-E=       -0.001196448050 Rises=F Damp=F
 DIIS: error= 3.09D-03 at cycle   6 NSaved=   6.
 NSaved= 6 IEnMin= 6 EnMin= -417.804461334842     IErMin= 6 ErrMin= 3.09D-03
 ErrMax= 3.09D-03  0.00D+00 EMaxC= 1.00D-01 BMatC= 1.13D-03 BMatP= 1.70D-03
 IDIUse=3 WtCom= 9.69D-01 WtEn= 3.09D-02
 Coeff-Com: -0.623D-02 0.187D-02-0.258D-01 0.143D-01 0.501D+00 0.514D+00
 Coeff-En:   0.000D+00 0.000D+00 0.000D+00 0.000D+00 0.363D+00 0.637D+00
 Coeff:     -0.604D-02 0.182D-02-0.250D-01 0.138D-01 0.497D+00 0.518D+00
 Gap=     0.157 Goal=   None    Shift=    0.000
 RMSDP=1.71D-04 MaxDP=9.67D-03 DE=-1.20D-03 OVMax= 1.51D-02

 Cycle   7  Pass 0  IDiag  1:
 E= -417.805785359991     Delta-E=       -0.001324025149 Rises=F Damp=F
 DIIS: error= 5.59D-04 at cycle   7 NSaved=   7.
 NSaved= 7 IEnMin= 7 EnMin= -417.805785359991     IErMin= 7 ErrMin= 5.59D-04
 ErrMax= 5.59D-04  0.00D+00 EMaxC= 1.00D-01 BMatC= 5.52D-05 BMatP= 1.13D-03
 IDIUse=3 WtCom= 9.94D-01 WtEn= 5.59D-03
 Coeff-Com: -0.775D-02 0.134D-01-0.169D-01-0.250D-01 0.179D+00 0.270D+00
 Coeff-Com:  0.588D+00
 Coeff-En:   0.000D+00 0.000D+00 0.000D+00 0.000D+00 0.000D+00 0.000D+00
 Coeff-En:   0.100D+01
 Coeff:     -0.770D-02 0.133D-01-0.168D-01-0.249D-01 0.178D+00 0.268D+00
 Coeff:      0.590D+00
 Gap=     0.157 Goal=   None    Shift=    0.000
 RMSDP=3.06D-05 MaxDP=1.36D-03 DE=-1.32D-03 OVMax= 4.05D-03

 Cycle   8  Pass 0  IDiag  1:
 E= -417.805827930093     Delta-E=       -0.000042570102 Rises=F Damp=F
 DIIS: error= 3.90D-04 at cycle   8 NSaved=   8.
 NSaved= 8 IEnMin= 8 EnMin= -417.805827930093     IErMin= 8 ErrMin= 3.90D-04
 ErrMax= 3.90D-04  0.00D+00 EMaxC= 1.00D-01 BMatC= 1.61D-05 BMatP= 5.52D-05
 IDIUse=3 WtCom= 9.96D-01 WtEn= 3.90D-03
 Coeff-Com: -0.576D-02 0.127D-01-0.861D-02-0.268D-01 0.218D-01 0.950D-01
 Coeff-Com:  0.421D+00 0.491D+00
 Coeff-En:   0.000D+00 0.000D+00 0.000D+00 0.000D+00 0.000D+00 0.000D+00
 Coeff-En:   0.166D+00 0.834D+00
 Coeff:     -0.574D-02 0.127D-01-0.857D-02-0.267D-01 0.217D-01 0.947D-01
 Coeff:      0.420D+00 0.492D+00
 Gap=     0.157 Goal=   None    Shift=    0.000
 RMSDP=5.89D-05 MaxDP=4.02D-03 DE=-4.26D-05 OVMax= 1.85D-03

 Cycle   9  Pass 0  IDiag  1:
 E= -417.805845864766     Delta-E=       -0.000017934673 Rises=F Damp=F
 DIIS: error= 9.79D-05 at cycle   9 NSaved=   9.
 NSaved= 9 IEnMin= 9 EnMin= -417.805845864766     IErMin= 9 ErrMin= 9.79D-05
 ErrMax= 9.79D-05  0.00D+00 EMaxC= 1.00D-01 BMatC= 1.68D-06 BMatP= 1.61D-05
 IDIUse=1 WtCom= 1.00D+00 WtEn= 0.00D+00
 Coeff-Com: -0.293D-02 0.745D-02-0.300D-02-0.159D-01-0.255D-01 0.973D-02
 Coeff-Com:  0.174D+00 0.259D+00 0.597D+00
 Coeff:     -0.293D-02 0.745D-02-0.300D-02-0.159D-01-0.255D-01 0.973D-02
 Coeff:      0.174D+00 0.259D+00 0.597D+00
 Gap=     0.157 Goal=   None    Shift=    0.000
 RMSDP=1.23D-05 MaxDP=6.80D-04 DE=-1.79D-05 OVMax= 7.51D-04

 Failed to achieve initial convergence to 1.0D-08 in 10 cycles.
 Switch to full accuracy anyway.
 Cycle  10  Pass 1  IDiag  1:
 E= -417.805786353721     Delta-E=        0.000059511045 Rises=F Damp=F
 DIIS: error= 6.38D-05 at cycle   1 NSaved=   1.
 NSaved= 1 IEnMin= 1 EnMin= -417.805786353721     IErMin= 1 ErrMin= 6.38D-05
 ErrMax= 6.38D-05  0.00D+00 EMaxC= 1.00D-01 BMatC= 3.67D-07 BMatP= 3.67D-07
 IDIUse=1 WtCom= 1.00D+00 WtEn= 0.00D+00
 Coeff-Com:  0.100D+01
 Coeff:      0.100D+01
 Gap=     0.157 Goal=   None    Shift=    0.000
 RMSDP=1.23D-05 MaxDP=6.80D-04 DE= 5.95D-05 OVMax= 7.35D-04

 Cycle  11  Pass 1  IDiag  1:
 E= -417.805784942097     Delta-E=        0.000001411624 Rises=F Damp=F
 DIIS: error= 1.30D-04 at cycle   2 NSaved=   2.
 NSaved= 2 IEnMin= 1 EnMin= -417.805786353721     IErMin= 1 ErrMin= 6.38D-05
 ErrMax= 1.30D-04  0.00D+00 EMaxC= 1.00D-01 BMatC= 1.50D-06 BMatP= 3.67D-07
 IDIUse=3 WtCom= 4.67D-01 WtEn= 5.33D-01
 Coeff-Com:  0.678D+00 0.322D+00
 Coeff-En:   0.763D+00 0.237D+00
 Coeff:      0.724D+00 0.276D+00
 Gap=     0.157 Goal=   None    Shift=    0.000
 RMSDP=1.38D-05 MaxDP=9.54D-04 DE= 1.41D-06 OVMax= 4.09D-04

 Cycle  12  Pass 1  IDiag  1:
 E= -417.805786801429     Delta-E=       -0.000001859331 Rises=F Damp=F
 DIIS: error= 1.30D-05 at cycle   3 NSaved=   3.
 NSaved= 3 IEnMin= 3 EnMin= -417.805786801429     IErMin= 3 ErrMin= 1.30D-05
 ErrMax= 1.30D-05  0.00D+00 EMaxC= 1.00D-01 BMatC= 2.43D-08 BMatP= 3.67D-07
 IDIUse=1 WtCom= 1.00D+00 WtEn= 0.00D+00
 Coeff-Com:  0.175D+00 0.445D-03 0.824D+00
 Coeff:      0.175D+00 0.445D-03 0.824D+00
 Gap=     0.157 Goal=   None    Shift=    0.000
 RMSDP=8.03D-07 MaxDP=4.15D-05 DE=-1.86D-06 OVMax= 4.85D-05

 Cycle  13  Pass 1  IDiag  1:
 E= -417.805786814707     Delta-E=       -0.000000013278 Rises=F Damp=F
 DIIS: error= 8.81D-06 at cycle   4 NSaved=   4.
 NSaved= 4 IEnMin= 4 EnMin= -417.805786814707     IErMin= 4 ErrMin= 8.81D-06
 ErrMax= 8.81D-06  0.00D+00 EMaxC= 1.00D-01 BMatC= 1.27D-08 BMatP= 2.43D-08
 IDIUse=1 WtCom= 1.00D+00 WtEn= 0.00D+00
 Coeff-Com: -0.618D-01-0.902D-01 0.587D+00 0.565D+00
 Coeff:     -0.618D-01-0.902D-01 0.587D+00 0.565D+00
 Gap=     0.157 Goal=   None    Shift=    0.000
 RMSDP=6.21D-07 MaxDP=3.01D-05 DE=-1.33D-08 OVMax= 4.28D-05

 Cycle  14  Pass 1  IDiag  1:
 E= -417.805786826672     Delta-E=       -0.000000011965 Rises=F Damp=F
 DIIS: error= 2.11D-06 at cycle   5 NSaved=   5.
 NSaved= 5 IEnMin= 5 EnMin= -417.805786826672     IErMin= 5 ErrMin= 2.11D-06
 ErrMax= 2.11D-06  0.00D+00 EMaxC= 1.00D-01 BMatC= 6.63D-10 BMatP= 1.27D-08
 IDIUse=1 WtCom= 1.00D+00 WtEn= 0.00D+00
 Coeff-Com: -0.432D-01-0.425D-01 0.195D+00 0.275D+00 0.615D+00
 Coeff:     -0.432D-01-0.425D-01 0.195D+00 0.275D+00 0.615D+00
 Gap=     0.157 Goal=   None    Shift=    0.000
 RMSDP=2.17D-07 MaxDP=1.36D-05 DE=-1.20D-08 OVMax= 1.23D-05

 Cycle  15  Pass 1  IDiag  1:
 E= -417.805786827181     Delta-E=       -0.000000000509 Rises=F Damp=F
 DIIS: error= 1.59D-06 at cycle   6 NSaved=   6.
 NSaved= 6 IEnMin= 6 EnMin= -417.805786827181     IErMin= 6 ErrMin= 1.59D-06
 ErrMax= 1.59D-06  0.00D+00 EMaxC= 1.00D-01 BMatC= 2.46D-10 BMatP= 6.63D-10
 IDIUse=1 WtCom= 1.00D+00 WtEn= 0.00D+00
 Coeff-Com: -0.128D-01-0.664D-02-0.947D-02 0.480D-01 0.418D+00 0.563D+00
 Coeff:     -0.128D-01-0.664D-02-0.947D-02 0.480D-01 0.418D+00 0.563D+00
 Gap=     0.157 Goal=   None    Shift=    0.000
 RMSDP=7.97D-08 MaxDP=4.15D-06 DE=-5.09D-10 OVMax= 1.01D-05

 Cycle  16  Pass 1  IDiag  1:
 E= -417.805786827470     Delta-E=       -0.000000000288 Rises=F Damp=F
 DIIS: error= 4.97D-07 at cycle   7 NSaved=   7.
 NSaved= 7 IEnMin= 7 EnMin= -417.805786827470     IErMin= 7 ErrMin= 4.97D-07
 ErrMax= 4.97D-07  0.00D+00 EMaxC= 1.00D-01 BMatC= 3.15D-11 BMatP= 2.46D-10
 IDIUse=1 WtCom= 1.00D+00 WtEn= 0.00D+00
 Coeff-Com: -0.299D-02 0.661D-03-0.275D-01-0.634D-02 0.169D+00 0.337D+00
 Coeff-Com:  0.531D+00
 Coeff:     -0.299D-02 0.661D-03-0.275D-01-0.634D-02 0.169D+00 0.337D+00
 Coeff:      0.531D+00
 Gap=     0.157 Goal=   None    Shift=    0.000
 RMSDP=9.22D-08 MaxDP=6.27D-06 DE=-2.88D-10 OVMax= 4.62D-06

 Cycle  17  Pass 1  IDiag  1:
 E= -417.805786827510     Delta-E=       -0.000000000040 Rises=F Damp=F
 DIIS: error= 1.84D-07 at cycle   8 NSaved=   8.
 NSaved= 8 IEnMin= 8 EnMin= -417.805786827510     IErMin= 8 ErrMin= 1.84D-07
 ErrMax= 1.84D-07  0.00D+00 EMaxC= 1.00D-01 BMatC= 3.78D-12 BMatP= 3.15D-11
 IDIUse=1 WtCom= 1.00D+00 WtEn= 0.00D+00
 Coeff-Com:  0.644D-03 0.177D-02-0.169D-01-0.137D-01 0.434D-01 0.118D+00
 Coeff-Com:  0.297D+00 0.570D+00
 Coeff:      0.644D-03 0.177D-02-0.169D-01-0.137D-01 0.434D-01 0.118D+00
 Coeff:      0.297D+00 0.570D+00
 Gap=     0.157 Goal=   None    Shift=    0.000
 RMSDP=2.23D-08 MaxDP=1.37D-06 DE=-4.04D-11 OVMax= 1.86D-06

 Cycle  18  Pass 1  IDiag  1:
 E= -417.805786827508     Delta-E=        0.000000000003 Rises=F Damp=F
 DIIS: error= 6.93D-08 at cycle   9 NSaved=   9.
 NSaved= 9 IEnMin= 8 EnMin= -417.805786827510     IErMin= 9 ErrMin= 6.93D-08
 ErrMax= 6.93D-08  0.00D+00 EMaxC= 1.00D-01 BMatC= 5.81D-13 BMatP= 3.78D-12
 IDIUse=1 WtCom= 1.00D+00 WtEn= 0.00D+00
 Coeff-Com:  0.435D-03 0.938D-03-0.816D-02-0.812D-02 0.137D-01 0.470D-01
 Coeff-Com:  0.144D+00 0.375D+00 0.436D+00
 Coeff:      0.435D-03 0.938D-03-0.816D-02-0.812D-02 0.137D-01 0.470D-01
 Coeff:      0.144D+00 0.375D+00 0.436D+00
 Gap=     0.157 Goal=   None    Shift=    0.000
 RMSDP=1.13D-08 MaxDP=7.85D-07 DE= 2.50D-12 OVMax= 5.72D-07

 Cycle  19  Pass 1  IDiag  1:
 E= -417.805786827517     Delta-E=       -0.000000000009 Rises=F Damp=F
 DIIS: error= 6.53D-09 at cycle  10 NSaved=  10.
 NSaved=10 IEnMin=10 EnMin= -417.805786827517     IErMin=10 ErrMin= 6.53D-09
 ErrMax= 6.53D-09  0.00D+00 EMaxC= 1.00D-01 BMatC= 1.07D-14 BMatP= 5.81D-13
 IDIUse=1 WtCom= 1.00D+00 WtEn= 0.00D+00
 Coeff-Com:  0.664D-04 0.406D-04-0.172D-04-0.583D-03-0.215D-02-0.480D-02
 Coeff-Com: -0.481D-02 0.320D-01 0.125D+00 0.855D+00
 Coeff:      0.664D-04 0.406D-04-0.172D-04-0.583D-03-0.215D-02-0.480D-02
 Coeff:     -0.481D-02 0.320D-01 0.125D+00 0.855D+00
 Gap=     0.157 Goal=   None    Shift=    0.000
 RMSDP=1.10D-09 MaxDP=5.32D-08 DE=-9.09D-12 OVMax= 3.63D-08

 SCF Done:  E(RM062X) =  -417.805786828     A.U. after   19 cycles
            NFock= 19  Conv=0.11D-08     -V/T= 2.0065
 KE= 4.150972403763D+02 PE=-1.574813995490D+03 EE= 4.395197390069D+02
 Leave Link  502 at Mon Oct 12 17:23:37 2020, MaxMem=  1073741824 cpu:             383.0 elap:              43.9
 (Enter /home/spantaleone/g16/l508.exe)
 QCSCF skips out because SCF is already converged.
 Leave Link  508 at Mon Oct 12 17:23:38 2020, MaxMem=  1073741824 cpu:               0.1 elap:               0.0
 (Enter /home/spantaleone/g16/l601.exe)
 Copying SCF densities to generalized density rwf, IOpCl= 0 IROHF=0.

 **********************************************************************

            Population analysis using the SCF Density.

 **********************************************************************

 Alpha  occ. eigenvalues --  -19.73670 -10.72784 -10.67577 -10.66776 -10.66424
 Alpha  occ. eigenvalues --  -10.61820 -10.61116 -10.60900 -10.60883 -10.56547
 Alpha  occ. eigenvalues --   -1.26263  -0.98611  -0.96232  -0.92617  -0.88067
 Alpha  occ. eigenvalues --   -0.83066  -0.77438  -0.72218  -0.68337  -0.63489
 Alpha  occ. eigenvalues --   -0.56886  -0.56886  -0.50807  -0.50807  -0.46206
 Alpha  occ. eigenvalues --   -0.46206  -0.39408  -0.39408  -0.37447  -0.30484
 Alpha  occ. eigenvalues --   -0.30484
 Alpha virt. eigenvalues --   -0.14775  -0.14775  -0.03412  -0.03412   0.07761
 Alpha virt. eigenvalues --    0.07761   0.09013   0.11818   0.14270   0.18379
 Alpha virt. eigenvalues --    0.18380   0.19151   0.20338   0.21161   0.25398
 Alpha virt. eigenvalues --    0.25803   0.26113   0.26113   0.27193   0.27193
 Alpha virt. eigenvalues --    0.28130   0.28130   0.29832   0.31369   0.31369
 Alpha virt. eigenvalues --    0.33206   0.35648   0.35648   0.39579   0.40856
 Alpha virt. eigenvalues --    0.40856   0.47429   0.47429   0.48909   0.49008
 Alpha virt. eigenvalues --    0.49008   0.51834   0.51834   0.54830   0.54830
 Alpha virt. eigenvalues --    0.56348   0.56348   0.57410   0.61287   0.62465
 Alpha virt. eigenvalues --    0.62465   0.64154   0.64155   0.64522   0.66874
 Alpha virt. eigenvalues --    0.68146   0.70157   0.70157   0.73597   0.73599
 Alpha virt. eigenvalues --    0.73837   0.79259   0.79396   0.79397   0.80274
 Alpha virt. eigenvalues --    0.80274   0.81244   0.81244   0.82420   0.88038
 Alpha virt. eigenvalues --    0.91116   0.92509   0.92509   0.97802   1.01259
 Alpha virt. eigenvalues --    1.01259   1.07187   1.07187   1.08050   1.09345
 Alpha virt. eigenvalues --    1.09345   1.11741   1.12690   1.19903   1.21902
 Alpha virt. eigenvalues --    1.21902   1.22375   1.22375   1.25609   1.27177
 Alpha virt. eigenvalues --    1.34584   1.35484   1.35484   1.47184   1.47184
 Alpha virt. eigenvalues --    1.54889   1.54889   1.58447   1.58447   1.59601
 Alpha virt. eigenvalues --    1.59601   1.71680   1.71680   1.73408   1.79994
 Alpha virt. eigenvalues --    1.90951   1.90951   1.91707   1.94249   2.02985
 Alpha virt. eigenvalues --    2.07516   2.07516   2.13325   2.21670   2.22301
 Alpha virt. eigenvalues --    2.22301   2.29154   2.29973   2.29973   2.31218
 Alpha virt. eigenvalues --    2.31218   2.33072   2.33072   2.35381   2.35677
 Alpha virt. eigenvalues --    2.36146   2.36146   2.39245   2.39245   2.40080
 Alpha virt. eigenvalues --    2.40080   2.40810   2.42182   2.42182   2.43186
 Alpha virt. eigenvalues --    2.43186   2.43857   2.43861   2.43887   2.46305
 Alpha virt. eigenvalues --    2.46305   2.53952   2.54454   2.54454   2.54552
 Alpha virt. eigenvalues --    2.54552   2.59195   2.59195   2.60854   2.62021
 Alpha virt. eigenvalues --    2.62022   2.63575   2.63575   2.70287   2.70288
 Alpha virt. eigenvalues --    2.72561   2.72561   2.73696   2.73696   2.74559
 Alpha virt. eigenvalues --    2.74560   2.74656   2.74656   2.75328   2.75328
 Alpha virt. eigenvalues --    2.76107   2.77157   2.77158   2.79496   2.79497
 Alpha virt. eigenvalues --    2.85553   2.85553   2.85626   2.86802   2.86802
 Alpha virt. eigenvalues --    2.91785   2.91785   2.94636   2.96730   2.96730
 Alpha virt. eigenvalues --    2.96977   2.96977   3.00904   3.03540   3.03540
 Alpha virt. eigenvalues --    3.03914   3.03914   3.11554   3.11555   3.11623
 Alpha virt. eigenvalues --    3.11623   3.14221   3.14677   3.14678   3.16028
 Alpha virt. eigenvalues --    3.16029   3.17088   3.24262   3.24263   3.25402
 Alpha virt. eigenvalues --    3.25403   3.30279   3.34208   3.34208   3.39259
 Alpha virt. eigenvalues --    3.39259   3.48199   3.48199   3.52375   3.52375
 Alpha virt. eigenvalues --    3.52918   3.59417   3.59417   3.74808   3.77456
 Alpha virt. eigenvalues --    3.77457   3.85954   3.98206   3.98206   4.08173
 Alpha virt. eigenvalues --    4.11520   4.11520   4.12281   4.12281   4.25553
 Alpha virt. eigenvalues --    4.31430   4.37673   4.37673   4.44597   4.44597
 Alpha virt. eigenvalues --    4.48473   4.59624   4.59624   4.64576   4.79589
 Alpha virt. eigenvalues --    4.92201   4.92202   5.01602   5.03908   5.10052
 Alpha virt. eigenvalues --    5.10052   5.26017   5.27723   5.27723   5.51325
 Alpha virt. eigenvalues --    5.51325   5.51914   5.60118   5.60753   5.60754
 Alpha virt. eigenvalues --    5.65400   5.87152   5.87153   5.90654   5.94823
 Alpha virt. eigenvalues --    6.00487   6.00487   6.24353   6.24354   6.41908
 Alpha virt. eigenvalues --    6.75872   6.75872   6.88795   6.88795   7.03901
 Alpha virt. eigenvalues --   11.26729  11.95284  12.86579  13.67193  14.31722
 Alpha virt. eigenvalues --   14.92273  15.05903  15.19654  15.24791
          Condensed to atoms (all electrons):
               1          2          3          4          5          6
     1  C    5.979231   0.354568  -0.214625  -0.029172  -0.009448  -0.000176
     2  C    0.354568   5.910008   0.411295  -0.293550  -0.004074  -0.001222
     3  C   -0.214625   0.411295   5.817561   0.429096  -0.244243   0.015791
     4  C   -0.029172  -0.293550   0.429096   5.851297  -0.054940  -0.333339
     5  C   -0.009448  -0.004074  -0.244243  -0.054940   6.020415   0.495839
     6  C   -0.000176  -0.001222   0.015791  -0.333339   0.495839   5.024263
     7  O    0.000000   0.000006   0.000883   0.017475  -0.044834   0.646608
     8  C    0.434555  -0.274557  -0.045445  -0.013428  -0.000428  -0.000001
     9  C   -0.475802   0.013041  -0.008415  -0.000464  -0.000002   0.000000
    10  C   -0.011681   0.000378  -0.000173  -0.000005  -0.000000  -0.000000
               7          8          9         10
     1  C    0.000000   0.434555  -0.475802  -0.011681
     2  C    0.000006  -0.274557   0.013041   0.000378
     3  C    0.000883  -0.045445  -0.008415  -0.000173
     4  C    0.017475  -0.013428  -0.000464  -0.000005
     5  C   -0.044834  -0.000428  -0.000002  -0.000000
     6  C    0.646608  -0.000001   0.000000  -0.000000
     7  O    7.602554   0.000000   0.000000   0.000000
     8  C    0.000000   6.045924  -0.544607  -0.169415
     9  C    0.000000  -0.544607   6.359481   1.024565
    10  C    0.000000  -0.169415   1.024565   5.249159
 Mulliken charges:
               1
     1  C   -0.027451
     2  C   -0.115894
     3  C   -0.161724
     4  C    0.427030
     5  C   -0.158284
     6  C    0.152237
     7  O   -0.222691
     8  C    0.567403
     9  C   -0.367797
    10  C   -0.092829
 Sum of Mulliken charges =  -0.00000
 Mulliken charges with hydrogens summed into heavy atoms:
               1
     1  C   -0.027451
     2  C   -0.115894
     3  C   -0.161724
     4  C    0.427030
     5  C   -0.158284
     6  C    0.152237
     7  O   -0.222691
     8  C    0.567403
     9  C   -0.367797
    10  C   -0.092829
 Electronic spatial extent (au):  <R**2>=           4222.5818
 Charge=             -0.0000 electrons
 Dipole moment (field-independent basis, Debye):
    X=             -0.0043    Y=              0.0000    Z=              4.1476  Tot=              4.1476
 Quadrupole moment (field-independent basis, Debye-Ang):
   XX=            -54.7320   YY=            -54.7320   ZZ=            -73.1573
   XY=              0.0000   XZ=              0.0029   YZ=             -0.0000
 Traceless Quadrupole moment (field-independent basis, Debye-Ang):
   XX=              6.1417   YY=              6.1418   ZZ=            -12.2835
   XY=              0.0000   XZ=              0.0029   YZ=             -0.0000
 Octapole moment (field-independent basis, Debye-Ang**2):
  XXX=             -0.4105  YYY=              0.0000  ZZZ=           -285.9324  XYY=             -0.1368
  XXY=              0.0000  XXZ=            -96.9413  XZZ=             -0.3786  YZZ=             -0.0000
  YYZ=            -96.9411  XYZ=              0.0000
 Hexadecapole moment (field-independent basis, Debye-Ang**3):
 XXXX=            -59.2448 YYYY=            -59.2406 ZZZZ=          -6940.2367 XXXY=              0.0000
 XXXZ=             -1.6197 YYYX=              0.0000 YYYZ=             -0.0000 ZZZX=             -2.8394
 ZZZY=             -0.0000 XXYY=            -19.7476 XXZZ=           -932.4990 YYZZ=           -932.4957
 XXYZ=             -0.0000 YYXZ=             -0.5399 ZZXY=              0.0000
 N-N= 3.023912292797D+02 E-N=-1.574813994927D+03  KE= 4.150972403763D+02
 No NMR shielding tensors so no spin-rotation constants.
 Leave Link  601 at Mon Oct 12 17:23:38 2020, MaxMem=  1073741824 cpu:               5.6 elap:               0.3
 (Enter /home/spantaleone/g16/l701.exe)
 ... and contract with generalized density number  0.
 Compute integral first derivatives.
 Leave Link  701 at Mon Oct 12 17:23:39 2020, MaxMem=  1073741824 cpu:               6.3 elap:               0.3
 (Enter /home/spantaleone/g16/l702.exe)
 L702 exits ... SP integral derivatives will be done elsewhere.
 Leave Link  702 at Mon Oct 12 17:23:39 2020, MaxMem=  1073741824 cpu:               0.7 elap:               0.0
 (Enter /home/spantaleone/g16/l703.exe)
 Integral derivatives from FoFJK, PRISM(SPDF).
 Compute integral first derivatives, UseDBF=F ICtDFT=           0.
 Calling FoFJK, ICntrl=      2127 FMM=F ISym2X=0 I1Cent= 0 IOpClX= 0 NMat=1 NMatS=1 NMatT=0.
 FoFJK:  IHMeth= 1 ICntrl=    2127 DoSepK=F KAlg= 0 I1Cent=           0 FoldK=F
 IRaf=         0 NMat=       1 IRICut=       1 DoRegI=T DoRafI=F ISym2E= 0 IDoP0=0 IntGTp=1.
 FoFCou: FMM=F IPFlag=           0 FMFlag=      100000 FMFlg1=         800
         NFxFlg=           0 DoJE=F BraDBF=F KetDBF=F FulRan=T
         wScrn=  0.000000 ICntrl=      2127 IOpCl=  0 I1Cent=           0 NGrid=           0
         NMat0=    1 NMatS0=      1 NMatT0=    0 NMatD0=    1 NMtDS0=    0 NMtDT0=    0
 Symmetry not used in FoFCou.
 Leave Link  703 at Mon Oct 12 17:23:45 2020, MaxMem=  1073741824 cpu:             137.0 elap:               5.7
 (Enter /home/spantaleone/g16/l716.exe)
 Dipole        =-1.69901086D-03 1.10019771D-14 1.63179188D+00
 -------------------------------------------------------------------
 Center     Atomic                   Forces (Hartrees/Bohr)
 Number     Number              X              Y              Z
 -------------------------------------------------------------------
      1        6          -0.000012704   -0.000000000   -0.019213272
      2        6           0.000033754   -0.000000000    0.015058672
      3        6          -0.000026430    0.000000000   -0.011863753
      4        6           0.000050418   -0.000000000    0.012763319
      5        6          -0.000056051    0.000000000   -0.017442795
      6        6           0.000223107    0.000000000    0.075693360
      7        8          -0.000212819    0.000000000   -0.081500251
      8        6           0.000009666    0.000000000    0.035931883
      9        6           0.000047037    0.000000000   -0.047020348
     10        6          -0.000055978   -0.000000000    0.037593186
 -------------------------------------------------------------------
 Cartesian Forces:  Max     0.081500251 RMS     0.024826706
 Leave Link  716 at Mon Oct 12 17:23:45 2020, MaxMem=  1073741824 cpu:               0.8 elap:               0.0
 (Enter /home/spantaleone/g16/l103.exe)

 GradGradGradGradGradGradGradGradGradGradGradGradGradGradGradGradGradGrad
 Berny optimization.
 FormGI is forming the generalized inverse of G from B-inverse, IUseBI=4.
 Internal  Forces:  Max     0.081500526 RMS     0.020083717
 Search for a local minimum.
 Step number   1 out of a maximum of  100
 All quantities printed in internal units (Hartrees-Bohrs-Radians)
 RMS Force = .20084D-01 SwitMx=.10000D-02 MixMth= 1
 Mixed Optimization -- RFO/linear search
 Second derivative matrix not updated -- first step.
 ITU=  0
     Eigenvalues ---    0.03341   0.03345   0.03648   0.03648   0.03649
     Eigenvalues ---    0.03649   0.03649   0.03650   0.03650   0.03650
     Eigenvalues ---    0.03650   0.03651   0.03651   0.04379   0.04386
     Eigenvalues ---    0.65729   0.72402   0.72429   0.72435   0.72438
     Eigenvalues ---    0.72460   0.72466   0.72487   1.06704
 RFO step:  Lambda=-1.10334923D-02 EMin= 3.34079386D-02
 Linear search not attempted -- first point.
 Iteration  1 RMS(Cart)=  0.04378886 RMS(Int)=  0.00000677
 Iteration  2 RMS(Cart)=  0.00001087 RMS(Int)=  0.00000000
 Iteration  3 RMS(Cart)=  0.00000000 RMS(Int)=  0.00000000
 ITry= 1 IFail=0 DXMaxC= 1.38D-01 DCOld= 1.00D+10 DXMaxT= 3.00D-01 DXLimC= 3.00D+00 Rises=F
 Variable       Old X    -DE/DX   Delta X   Delta X   Delta X     New X
                                 (Linear)    (Quad)   (Total)
    R1        2.42276  -0.00729   0.00000  -0.00992  -0.00992   2.41285
    R2        2.42253  -0.02650   0.00000  -0.03603  -0.03603   2.38651
    R3        2.42272  -0.02235   0.00000  -0.03039  -0.03039   2.39233
    R4        2.42293  -0.01049   0.00000  -0.01427  -0.01427   2.40867
    R5        2.42257  -0.02325   0.00000  -0.03161  -0.03161   2.39097
    R6        2.42270  -0.00581   0.00000  -0.00790  -0.00790   2.41481
    R7        2.26068  -0.08150   0.00000  -0.07560  -0.07560   2.18508
    R8        2.42240   0.00943   0.00000   0.01281   0.01281   2.43521
    R9        2.46675  -0.03759   0.00000  -0.05625  -0.05625   2.41050
    A1        3.14204   0.00001   0.00000   0.00035   0.00035   3.14239
    A2        3.14115   0.00001   0.00000   0.00008   0.00008   3.14122
    A3        3.14115  -0.00002   0.00000  -0.00053  -0.00053   3.14061
    A4        3.14115   0.00002   0.00000   0.00035   0.00035   3.14149
    A5        3.14115  -0.00000   0.00000  -0.00011  -0.00011   3.14103
    A6        3.14115   0.00006   0.00000   0.00108   0.00108   3.14223
    A7        3.14204  -0.00003   0.00000  -0.00060  -0.00060   3.14144
    A8        3.14204  -0.00000   0.00000  -0.00005  -0.00005   3.14199
    A9        3.14159  -0.00000   0.00000  -0.00000   0.00000   3.14159
   A10        3.14159   0.00000   0.00000   0.00000   0.00000   3.14159
   A11        3.14159   0.00000   0.00000   0.00000   0.00000   3.14159
   A12        3.14159   0.00000   0.00000   0.00000   0.00000   3.14159
   A13        3.14159   0.00000   0.00000   0.00000   0.00000   3.14159
   A14        3.14159   0.00000   0.00000   0.00000  -0.00000   3.14159
   A15        3.14159   0.00000   0.00000   0.00000   0.00000   3.14159
   A16        3.14159   0.00000   0.00000   0.00000   0.00000   3.14159
         Item               Value     Threshold  Converged?
 Maximum Force            0.081501     0.000450     NO 
 RMS     Force            0.020084     0.000300     NO 
 Maximum Displacement     0.138070     0.001800     NO 
 RMS     Displacement     0.043789     0.001200     NO 
 Predicted change in Energy=-5.586423D-03
 Lowest energy point so far.  Saving SCF results.
 GradGradGradGradGradGradGradGradGradGradGradGradGradGradGradGradGradGrad

 Leave Link  103 at Mon Oct 12 17:23:45 2020, MaxMem=  1073741824 cpu:               1.2 elap:               0.1
 (Enter /home/spantaleone/g16/l202.exe)
                          Input orientation:                          
 ---------------------------------------------------------------------
 Center     Atomic      Atomic             Coordinates (Angstroms)
 Number     Number       Type             X           Y           Z
 ---------------------------------------------------------------------
      1          6           0       -0.000095   -0.000000    0.016723
      2          6           0       -0.000151    0.000000    1.293546
      3          6           0        0.000259   -0.000000    2.559513
      4          6           0        0.001922   -0.000000    3.834122
      5          6           0        0.003701    0.000000    5.099366
      6          6           0        0.006214    0.000000    6.377225
      7          8           0        0.007751   -0.000000    7.533520
      8          6           0        0.000963   -0.000000   -1.246162
      9          6           0        0.001846   -0.000000   -2.534820
     10          6           0        0.003225    0.000000   -3.810403
 ---------------------------------------------------------------------
                    Distance matrix (angstroms):
                    1          2          3          4          5
     1  C    0.000000
     2  C    1.276823   0.000000
     3  C    2.542790   1.265967   0.000000
     4  C    3.817400   2.540577   1.274611   0.000000
     5  C    5.082645   3.805823   2.539856   1.265245   0.000000
     6  C    6.360506   5.083684   3.817717   2.543107   1.277862
     7  O    7.516801   6.239979   4.974013   3.699402   2.434157
     8  C    1.262885   2.539708   3.805675   5.080284   6.345529
     9  C    2.551544   3.828367   5.094333   6.368943   7.634187
    10  C    3.827128   5.103950   6.369917   7.644526   8.909770
                    6          7          8          9         10
     6  C    0.000000
     7  O    1.156295   0.000000
     8  C    7.623389   8.779684   0.000000
     9  C    8.912047  10.068342   1.288659   0.000000
    10  C   10.187629  11.343924   2.564243   1.275584   0.000000
 Symmetry turned off by external request.
 Stoichiometry    C9O
 Framework group  C1[X(C9O)]
 Deg. of freedom    24
 Full point group                 C1      NOp   1
 Rotational constants (GHZ):      992749.0968276           0.2956220           0.2956219
 Leave Link  202 at Mon Oct 12 17:23:45 2020, MaxMem=  1073741824 cpu:               0.1 elap:               0.0
 (Enter /home/spantaleone/g16/l301.exe)
 Standard basis: CC-pVTZ (5D, 7F)
 Ernie: Thresh=  0.10000D-02 Tol=  0.10000D-05 Strict=F.
 Ernie:  30 primitive shells out of 260 were deleted.
   300 basis functions,   520 primitive gaussians,   350 cartesian basis functions
    31 alpha electrons       31 beta electrons
       nuclear repulsion energy       305.8137514942 Hartrees.
 IExCor= 4336 DFT=T Ex+Corr=M062X ExCW=0 ScaHFX=  0.540000
 ScaDFX=  1.000000  1.000000  1.000000  1.000000 ScalE2=  1.000000  1.000000
 IRadAn=      5 IRanWt=     -1 IRanGd=            0 ICorTp=0 IEmpDi=  4
 NAtoms=   10 NActive=   10 NUniq=   10 SFac= 1.00D+00 NAtFMM=   60 NAOKFM=F Big=F
 Integral buffers will be    131072 words long.
 Raffenetti 2 integral format.
 Two-electron integral symmetry is turned off.
 Leave Link  301 at Mon Oct 12 17:23:45 2020, MaxMem=  1073741824 cpu:               1.0 elap:               0.0
 (Enter /home/spantaleone/g16/l302.exe)
 NPDir=0 NMtPBC=     1 NCelOv=     1 NCel=       1 NClECP=     1 NCelD=      1
         NCelK=      1 NCelE2=     1 NClLst=     1 CellRange=     0.0.
 One-electron integrals computed using PRISM.
 NBasis=   300 RedAO= T EigKep=  1.04D-05  NBF=   300
 NBsUse=   300 1.00D-06 EigRej= -1.00D+00 NBFU=   300
 Precomputing XC quadrature grid using
 IXCGrd= 4 IRadAn=           5 IRanWt=          -1 IRanGd=           0 AccXCQ= 0.00D+00.
 Generated NRdTot=       0 NPtTot=           0 NUsed=           0 NTot=          32
 NSgBfM=   345   345   345   345   345 MxSgAt=    10 MxSgA2=    10.
 Leave Link  302 at Mon Oct 12 17:23:45 2020, MaxMem=  1073741824 cpu:               7.6 elap:               0.3
 (Enter /home/spantaleone/g16/l303.exe)
 DipDrv:  MaxL=1.
 Leave Link  303 at Mon Oct 12 17:23:45 2020, MaxMem=  1073741824 cpu:               1.2 elap:               0.1
 (Enter /home/spantaleone/g16/l401.exe)
 Initial guess from the checkpoint file:  "input.chk"
 B after Tr=    -0.000011    0.000000   -0.004454
         Rot=    1.000000    0.000000    0.000004    0.000000 Ang=   0.00 deg.
 Guess basis will be translated and rotated to current coordinates.
 JPrj=2 DoOrth=T DoCkMO=T.
 Generating alternative initial guess.
 ExpMin= 1.21D-01 ExpMax= 1.53D+04 ExpMxC= 5.22D+02 IAcc=3 IRadAn=         5 AccDes= 0.00D+00
 Harris functional with IExCor= 1009 and IRadAn=       5 diagonalized for initial guess.
 HarFok:  IExCor= 1009 AccDes= 0.00D+00 IRadAn=         5 IDoV= 1 UseB2=F ITyADJ=14
 ICtDFT=  3500011 ScaDFX=  1.000000  1.000000  1.000000  1.000000
 FoFCou: FMM=F IPFlag=           0 FMFlag=      100000 FMFlg1=           0
         NFxFlg=           0 DoJE=T BraDBF=F KetDBF=T FulRan=T
         wScrn=  0.000000 ICntrl=       500 IOpCl=  0 I1Cent=   200000004 NGrid=           0
         NMat0=    1 NMatS0=      1 NMatT0=    0 NMatD0=    1 NMtDS0=    0 NMtDT0=    0
 Symmetry not used in FoFCou.
 Harris En= -417.645989992218    
 Leave Link  401 at Mon Oct 12 17:23:46 2020, MaxMem=  1073741824 cpu:              20.6 elap:               0.9
 (Enter /home/spantaleone/g16/l502.exe)
 Keep R1 ints in memory in canonical form, NReq=1047054361.
 FoFCou: FMM=F IPFlag=           0 FMFlag=           0 FMFlg1=           0
         NFxFlg=           0 DoJE=F BraDBF=F KetDBF=F FulRan=T
         wScrn=  0.000000 ICntrl=       600 IOpCl=  0 I1Cent=           0 NGrid=           0
         NMat0=    1 NMatS0=  45150 NMatT0=    0 NMatD0=    1 NMtDS0=    0 NMtDT0=    0
 Symmetry not used in FoFCou.
 Two-electron integral symmetry not used.
 Closed shell SCF:
 Using DIIS extrapolation, IDIIS=  1040.
 NGot=  1073741824 LenX=    54202413 LenY=    54079472
 Requested convergence on RMS density matrix=1.00D-08 within  32 cycles.
 Requested convergence on MAX density matrix=1.00D-06.
 Requested convergence on             energy=1.00D-06.
 No special actions if energy rises.
 Integral accuracy reduced to 1.0D-05 until final iterations.

 Cycle   1  Pass 0  IDiag  1:
 E= -417.809624930133    
 DIIS: error= 3.28D-03 at cycle   1 NSaved=   1.
 NSaved= 1 IEnMin= 1 EnMin= -417.809624930133     IErMin= 1 ErrMin= 3.28D-03
 ErrMax= 3.28D-03  0.00D+00 EMaxC= 1.00D-01 BMatC= 3.02D-03 BMatP= 3.02D-03
 IDIUse=3 WtCom= 9.67D-01 WtEn= 3.28D-02
 Coeff-Com:  0.100D+01
 Coeff-En:   0.100D+01
 Coeff:      0.100D+01
 Gap=     1.094 Goal=   None    Shift=    0.000
 GapD=    1.094 DampG=2.000 DampE=1.000 DampFc=2.0000 IDamp=-1.
 RMSDP=1.59D-03 MaxDP=1.08D-01              OVMax= 2.26D-02

 Cycle   2  Pass 0  IDiag  1:
 E= -417.811432470422     Delta-E=       -0.001807540290 Rises=F Damp=F
 DIIS: error= 2.24D-03 at cycle   2 NSaved=   2.
 NSaved= 2 IEnMin= 2 EnMin= -417.811432470422     IErMin= 2 ErrMin= 2.24D-03
 ErrMax= 2.24D-03  0.00D+00 EMaxC= 1.00D-01 BMatC= 7.42D-04 BMatP= 3.02D-03
 IDIUse=3 WtCom= 9.78D-01 WtEn= 2.24D-02
 Coeff-Com:  0.265D+00 0.735D+00
 Coeff-En:   0.000D+00 0.100D+01
 Coeff:      0.259D+00 0.741D+00
 Gap=     0.161 Goal=   None    Shift=    0.000
 RMSDP=1.29D-03 MaxDP=9.17D-02 DE=-1.81D-03 OVMax= 2.69D-02

 Cycle   3  Pass 0  IDiag  1:
 E= -417.811156361238     Delta-E=        0.000276109184 Rises=F Damp=F
 DIIS: error= 3.38D-03 at cycle   3 NSaved=   3.
 NSaved= 3 IEnMin= 2 EnMin= -417.811432470422     IErMin= 2 ErrMin= 2.24D-03
 ErrMax= 3.38D-03  0.00D+00 EMaxC= 1.00D-01 BMatC= 7.64D-04 BMatP= 7.42D-04
 IDIUse=3 WtCom= 9.66D-01 WtEn= 3.38D-02
 Coeff-Com:  0.594D-01 0.494D+00 0.447D+00
 Coeff-En:   0.000D+00 0.565D+00 0.435D+00
 Coeff:      0.574D-01 0.496D+00 0.446D+00
 Gap=     0.161 Goal=   None    Shift=    0.000
 RMSDP=4.50D-04 MaxDP=3.17D-02 DE= 2.76D-04 OVMax= 2.04D-02

 Cycle   4  Pass 0  IDiag  1:
 E= -417.812092355313     Delta-E=       -0.000935994075 Rises=F Damp=F
 DIIS: error= 1.05D-03 at cycle   4 NSaved=   4.
 NSaved= 4 IEnMin= 4 EnMin= -417.812092355313     IErMin= 4 ErrMin= 1.05D-03
 ErrMax= 1.05D-03  0.00D+00 EMaxC= 1.00D-01 BMatC= 5.64D-05 BMatP= 7.42D-04
 IDIUse=3 WtCom= 9.89D-01 WtEn= 1.05D-02
 Coeff-Com: -0.879D-02 0.125D+00 0.244D+00 0.639D+00
 Coeff-En:   0.000D+00 0.000D+00 0.776D-01 0.922D+00
 Coeff:     -0.870D-02 0.124D+00 0.242D+00 0.642D+00
 Gap=     0.161 Goal=   None    Shift=    0.000
 RMSDP=2.20D-04 MaxDP=1.59D-02 DE=-9.36D-04 OVMax= 5.91D-03

 Cycle   5  Pass 0  IDiag  1:
 E= -417.812160056345     Delta-E=       -0.000067701032 Rises=F Damp=F
 DIIS: error= 4.37D-04 at cycle   5 NSaved=   5.
 NSaved= 5 IEnMin= 5 EnMin= -417.812160056345     IErMin= 5 ErrMin= 4.37D-04
 ErrMax= 4.37D-04  0.00D+00 EMaxC= 1.00D-01 BMatC= 1.64D-05 BMatP= 5.64D-05
 IDIUse=3 WtCom= 9.96D-01 WtEn= 4.37D-03
 Coeff-Com: -0.125D-01 0.144D-01 0.102D+00 0.426D+00 0.470D+00
 Coeff-En:   0.000D+00 0.000D+00 0.000D+00 0.189D+00 0.811D+00
 Coeff:     -0.124D-01 0.143D-01 0.101D+00 0.425D+00 0.472D+00
 Gap=     0.161 Goal=   None    Shift=    0.000
 RMSDP=2.06D-05 MaxDP=1.22D-03 DE=-6.77D-05 OVMax= 1.70D-03

 Cycle   6  Pass 0  IDiag  1:
 E= -417.812178888745     Delta-E=       -0.000018832400 Rises=F Damp=F
 DIIS: error= 8.59D-05 at cycle   6 NSaved=   6.
 NSaved= 6 IEnMin= 6 EnMin= -417.812178888745     IErMin= 6 ErrMin= 8.59D-05
 ErrMax= 8.59D-05  0.00D+00 EMaxC= 1.00D-01 BMatC= 6.96D-07 BMatP= 1.64D-05
 IDIUse=1 WtCom= 1.00D+00 WtEn= 0.00D+00
 Coeff-Com: -0.259D-02-0.144D-01-0.284D-03 0.600D-01 0.195D+00 0.762D+00
 Coeff:     -0.259D-02-0.144D-01-0.284D-03 0.600D-01 0.195D+00 0.762D+00
 Gap=     0.161 Goal=   None    Shift=    0.000
 RMSDP=2.52D-05 MaxDP=1.82D-03 DE=-1.88D-05 OVMax= 3.08D-04

 Cycle   7  Pass 0  IDiag  1:
 E= -417.812179551253     Delta-E=       -0.000000662508 Rises=F Damp=F
 DIIS: error= 2.47D-05 at cycle   7 NSaved=   7.
 NSaved= 7 IEnMin= 7 EnMin= -417.812179551253     IErMin= 7 ErrMin= 2.47D-05
 ErrMax= 2.47D-05  0.00D+00 EMaxC= 1.00D-01 BMatC= 1.76D-07 BMatP= 6.96D-07
 IDIUse=1 WtCom= 1.00D+00 WtEn= 0.00D+00
 Coeff-Com:  0.504D-04-0.108D-01-0.149D-01-0.245D-01 0.557D-01 0.450D+00
 Coeff-Com:  0.545D+00
 Coeff:      0.504D-04-0.108D-01-0.149D-01-0.245D-01 0.557D-01 0.450D+00
 Coeff:      0.545D+00
 Gap=     0.161 Goal=   None    Shift=    0.000
 RMSDP=1.17D-05 MaxDP=8.32D-04 DE=-6.63D-07 OVMax= 1.30D-04

 Cycle   8  Pass 0  IDiag  1:
 E= -417.812179713775     Delta-E=       -0.000000162522 Rises=F Damp=F
 DIIS: error= 7.05D-06 at cycle   8 NSaved=   8.
 NSaved= 8 IEnMin= 8 EnMin= -417.812179713775     IErMin= 8 ErrMin= 7.05D-06
 ErrMax= 7.05D-06  0.00D+00 EMaxC= 1.00D-01 BMatC= 9.64D-09 BMatP= 1.76D-07
 IDIUse=1 WtCom= 1.00D+00 WtEn= 0.00D+00
 Coeff-Com:  0.294D-03-0.375D-02-0.678D-02-0.145D-01 0.104D-01 0.134D+00
 Coeff-Com:  0.247D+00 0.633D+00
 Coeff:      0.294D-03-0.375D-02-0.678D-02-0.145D-01 0.104D-01 0.134D+00
 Coeff:      0.247D+00 0.633D+00
 Gap=     0.161 Goal=   None    Shift=    0.000
 RMSDP=7.33D-07 MaxDP=4.29D-05 DE=-1.63D-07 OVMax= 8.65D-05

 Initial convergence to 1.0D-05 achieved.  Increase integral accuracy.
 Cycle   9  Pass 1  IDiag  1:
 E= -417.812111158788     Delta-E=        0.000068554988 Rises=F Damp=F
 DIIS: error= 9.89D-06 at cycle   1 NSaved=   1.
 NSaved= 1 IEnMin= 1 EnMin= -417.812111158788     IErMin= 1 ErrMin= 9.89D-06
 ErrMax= 9.89D-06  0.00D+00 EMaxC= 1.00D-01 BMatC= 4.18D-08 BMatP= 4.18D-08
 IDIUse=1 WtCom= 1.00D+00 WtEn= 0.00D+00
 Coeff-Com:  0.100D+01
 Coeff:      0.100D+01
 Gap=     0.161 Goal=   None    Shift=    0.000
 RMSDP=7.33D-07 MaxDP=4.29D-05 DE= 6.86D-05 OVMax= 8.18D-05

 Cycle  10  Pass 1  IDiag  1:
 E= -417.812111168609     Delta-E=       -0.000000009821 Rises=F Damp=F
 DIIS: error= 8.62D-06 at cycle   2 NSaved=   2.
 NSaved= 2 IEnMin= 2 EnMin= -417.812111168609     IErMin= 2 ErrMin= 8.62D-06
 ErrMax= 8.62D-06  0.00D+00 EMaxC= 1.00D-01 BMatC= 1.06D-08 BMatP= 4.18D-08
 IDIUse=1 WtCom= 1.00D+00 WtEn= 0.00D+00
 Coeff-Com:  0.243D+00 0.757D+00
 Coeff:      0.243D+00 0.757D+00
 Gap=     0.161 Goal=   None    Shift=    0.000
 RMSDP=1.40D-06 MaxDP=7.51D-05 DE=-9.82D-09 OVMax= 1.41D-04

 Cycle  11  Pass 1  IDiag  1:
 E= -417.812111157557     Delta-E=        0.000000011051 Rises=F Damp=F
 DIIS: error= 1.26D-05 at cycle   3 NSaved=   3.
 NSaved= 3 IEnMin= 2 EnMin= -417.812111168609     IErMin= 2 ErrMin= 8.62D-06
 ErrMax= 1.26D-05  0.00D+00 EMaxC= 1.00D-01 BMatC= 1.82D-08 BMatP= 1.06D-08
 IDIUse=1 WtCom= 1.00D+00 WtEn= 0.00D+00
 Coeff-Com: -0.131D-01 0.573D+00 0.440D+00
 Coeff:     -0.131D-01 0.573D+00 0.440D+00
 Gap=     0.161 Goal=   None    Shift=    0.000
 RMSDP=5.83D-07 MaxDP=2.15D-05 DE= 1.11D-08 OVMax= 8.18D-05

 Cycle  12  Pass 1  IDiag  1:
 E= -417.812111182454     Delta-E=       -0.000000024897 Rises=F Damp=F
 DIIS: error= 1.95D-06 at cycle   4 NSaved=   4.
 NSaved= 4 IEnMin= 4 EnMin= -417.812111182454     IErMin= 4 ErrMin= 1.95D-06
 ErrMax= 1.95D-06  0.00D+00 EMaxC= 1.00D-01 BMatC= 5.64D-10 BMatP= 1.06D-08
 IDIUse=1 WtCom= 1.00D+00 WtEn= 0.00D+00
 Coeff-Com: -0.230D-01 0.318D+00 0.262D+00 0.444D+00
 Coeff:     -0.230D-01 0.318D+00 0.262D+00 0.444D+00
 Gap=     0.161 Goal=   None    Shift=    0.000
 RMSDP=1.87D-07 MaxDP=1.26D-05 DE=-2.49D-08 OVMax= 6.96D-06

 Cycle  13  Pass 1  IDiag  1:
 E= -417.812111182985     Delta-E=       -0.000000000530 Rises=F Damp=F
 DIIS: error= 4.85D-07 at cycle   5 NSaved=   5.
 NSaved= 5 IEnMin= 5 EnMin= -417.812111182985     IErMin= 5 ErrMin= 4.85D-07
 ErrMax= 4.85D-07  0.00D+00 EMaxC= 1.00D-01 BMatC= 3.05D-11 BMatP= 5.64D-10
 IDIUse=1 WtCom= 1.00D+00 WtEn= 0.00D+00
 Coeff-Com: -0.859D-02 0.742D-01 0.607D-01 0.186D+00 0.687D+00
 Coeff:     -0.859D-02 0.742D-01 0.607D-01 0.186D+00 0.687D+00
 Gap=     0.161 Goal=   None    Shift=    0.000
 RMSDP=5.70D-08 MaxDP=3.67D-06 DE=-5.30D-10 OVMax= 1.94D-06

 Cycle  14  Pass 1  IDiag  1:
 E= -417.812111183007     Delta-E=       -0.000000000023 Rises=F Damp=F
 DIIS: error= 2.81D-07 at cycle   6 NSaved=   6.
 NSaved= 6 IEnMin= 6 EnMin= -417.812111183007     IErMin= 6 ErrMin= 2.81D-07
 ErrMax= 2.81D-07  0.00D+00 EMaxC= 1.00D-01 BMatC= 1.30D-11 BMatP= 3.05D-11
 IDIUse=1 WtCom= 1.00D+00 WtEn= 0.00D+00
 Coeff-Com:  0.880D-04-0.222D-01-0.208D-01-0.253D-02 0.423D+00 0.623D+00
 Coeff:      0.880D-04-0.222D-01-0.208D-01-0.253D-02 0.423D+00 0.623D+00
 Gap=     0.161 Goal=   None    Shift=    0.000
 RMSDP=3.02D-08 MaxDP=1.73D-06 DE=-2.27D-11 OVMax= 1.03D-06

 Cycle  15  Pass 1  IDiag  1:
 E= -417.812111183014     Delta-E=       -0.000000000006 Rises=F Damp=F
 DIIS: error= 7.28D-08 at cycle   7 NSaved=   7.
 NSaved= 7 IEnMin= 7 EnMin= -417.812111183014     IErMin= 7 ErrMin= 7.28D-08
 ErrMax= 7.28D-08  0.00D+00 EMaxC= 1.00D-01 BMatC= 7.56D-13 BMatP= 1.30D-11
 IDIUse=1 WtCom= 1.00D+00 WtEn= 0.00D+00
 Coeff-Com:  0.532D-03-0.130D-01-0.126D-01-0.197D-01 0.140D+00 0.288D+00
 Coeff-Com:  0.617D+00
 Coeff:      0.532D-03-0.130D-01-0.126D-01-0.197D-01 0.140D+00 0.288D+00
 Coeff:      0.617D+00
 Gap=     0.161 Goal=   None    Shift=    0.000
 RMSDP=7.65D-09 MaxDP=4.76D-07 DE=-6.14D-12 OVMax= 3.94D-07

 SCF Done:  E(RM062X) =  -417.812111183     A.U. after   15 cycles
            NFock= 15  Conv=0.77D-08     -V/T= 2.0053
 KE= 4.156161003151D+02 PE=-1.582050939669D+03 EE= 4.428089766767D+02
 Leave Link  502 at Mon Oct 12 17:24:22 2020, MaxMem=  1073741824 cpu:             303.6 elap:              36.2
 (Enter /home/spantaleone/g16/l508.exe)
 QCSCF skips out because SCF is already converged.
 Leave Link  508 at Mon Oct 12 17:24:23 2020, MaxMem=  1073741824 cpu:               0.0 elap:               0.0
 (Enter /home/spantaleone/g16/l701.exe)
 ... and contract with generalized density number  0.
 Compute integral first derivatives.
 Leave Link  701 at Mon Oct 12 17:24:23 2020, MaxMem=  1073741824 cpu:               6.7 elap:               0.3
 (Enter /home/spantaleone/g16/l702.exe)
 L702 exits ... SP integral derivatives will be done elsewhere.
 Leave Link  702 at Mon Oct 12 17:24:23 2020, MaxMem=  1073741824 cpu:               0.7 elap:               0.0
 (Enter /home/spantaleone/g16/l703.exe)
 Integral derivatives from FoFJK, PRISM(SPDF).
 Compute integral first derivatives, UseDBF=F ICtDFT=           0.
 Calling FoFJK, ICntrl=      2127 FMM=F ISym2X=0 I1Cent= 0 IOpClX= 0 NMat=1 NMatS=1 NMatT=0.
 FoFJK:  IHMeth= 1 ICntrl=    2127 DoSepK=F KAlg= 0 I1Cent=           0 FoldK=F
 IRaf=         0 NMat=       1 IRICut=       1 DoRegI=T DoRafI=F ISym2E= 0 IDoP0=0 IntGTp=1.
 FoFCou: FMM=F IPFlag=           0 FMFlag=      100000 FMFlg1=         800
         NFxFlg=           0 DoJE=F BraDBF=F KetDBF=F FulRan=T
         wScrn=  0.000000 ICntrl=      2127 IOpCl=  0 I1Cent=           0 NGrid=           0
         NMat0=    1 NMatS0=      1 NMatT0=    0 NMatD0=    1 NMtDS0=    0 NMtDT0=    0
 Symmetry not used in FoFCou.
 Leave Link  703 at Mon Oct 12 17:24:29 2020, MaxMem=  1073741824 cpu:             133.5 elap:               5.6
 (Enter /home/spantaleone/g16/l716.exe)
 Dipole        =-4.04102028D-04 1.38504683D-08 2.35040957D+00
 -------------------------------------------------------------------
 Center     Atomic                   Forces (Hartrees/Bohr)
 Number     Number              X              Y              Z
 -------------------------------------------------------------------
      1        6           0.000009875    0.000000000   -0.010176045
      2        6           0.000019536   -0.000000001    0.009653013
      3        6          -0.000012046    0.000000000   -0.009437163
      4        6           0.000020835    0.000000001    0.009767015
      5        6           0.000004688    0.000000001   -0.011304799
      6        6          -0.000046100   -0.000000004    0.020889613
      7        8           0.000024731    0.000000002   -0.012765639
      8        6          -0.000035714    0.000000000    0.009436971
      9        6           0.000020830   -0.000000000   -0.008505825
     10        6          -0.000006636   -0.000000000    0.002442860
 -------------------------------------------------------------------
 Cartesian Forces:  Max     0.020889613 RMS     0.006520996
 Leave Link  716 at Mon Oct 12 17:24:29 2020, MaxMem=  1073741824 cpu:               0.7 elap:               0.0
 (Enter /home/spantaleone/g16/l103.exe)

 GradGradGradGradGradGradGradGradGradGradGradGradGradGradGradGradGradGrad
 Berny optimization.
 Using GEDIIS/GDIIS optimizer.
 FormGI is forming the generalized inverse of G from B-inverse, IUseBI=4.
 Internal  Forces:  Max     0.012765599 RMS     0.003954605
 Search for a local minimum.
 Step number   2 out of a maximum of  100
 All quantities printed in internal units (Hartrees-Bohrs-Radians)
 RMS Force = .39546D-02 SwitMx=.10000D-02 MixMth= 1
 Mixed Optimization -- RFO/linear search
 Update second derivatives using D2CorX and points    1    2
 DE= -6.32D-03 DEPred=-5.59D-03 R= 1.13D+00
 TightC=F SS=  1.41D+00  RLast= 1.12D-01 DXNew= 5.0454D-01 3.3715D-01
 Trust test= 1.13D+00 RLast= 1.12D-01 DXMaxT set to 3.37D-01
 ITU=  1  0
 Use linear search instead of GDIIS.
     Eigenvalues ---    0.03341   0.03345   0.03648   0.03648   0.03649
     Eigenvalues ---    0.03649   0.03649   0.03650   0.03650   0.03650
     Eigenvalues ---    0.03650   0.03651   0.03651   0.04379   0.04386
     Eigenvalues ---    0.60331   0.68735   0.72412   0.72433   0.72443
     Eigenvalues ---    0.72463   0.72479   0.79915   0.99607
 RFO step:  Lambda=-4.04026646D-04 EMin= 3.34079386D-02
 Quartic linear search produced a step of  0.11511.
 Iteration  1 RMS(Cart)=  0.00459695 RMS(Int)=  0.00000389
 Iteration  2 RMS(Cart)=  0.00000654 RMS(Int)=  0.00000000
 Iteration  3 RMS(Cart)=  0.00000001 RMS(Int)=  0.00000000
 ITry= 1 IFail=0 DXMaxC= 1.47D-02 DCOld= 1.00D+10 DXMaxT= 3.37D-01 DXLimC= 3.00D+00 Rises=F
 Variable       Old X    -DE/DX   Delta X   Delta X   Delta X     New X
                                 (Linear)    (Quad)   (Total)
    R1        2.41285   0.00680  -0.00114   0.01141   0.01027   2.42311
    R2        2.38651  -0.00337  -0.00415  -0.00177  -0.00592   2.38059
    R3        2.39233  -0.00285  -0.00350  -0.00150  -0.00500   2.38733
    R4        2.40867   0.00659  -0.00164   0.01149   0.00985   2.41851
    R5        2.39097  -0.00318  -0.00364  -0.00189  -0.00553   2.38543
    R6        2.41481   0.00812  -0.00091   0.01325   0.01234   2.42715
    R7        2.18508  -0.01277  -0.00870  -0.00657  -0.01527   2.16981
    R8        2.43521   0.00606   0.00147   0.00811   0.00958   2.44479
    R9        2.41050  -0.00244  -0.00647   0.00129  -0.00518   2.40532
    A1        3.14239  -0.00000   0.00004  -0.00024  -0.00020   3.14219
    A2        3.14122   0.00003   0.00001   0.00077   0.00078   3.14200
    A3        3.14061   0.00001  -0.00006   0.00051   0.00044   3.14106
    A4        3.14149   0.00000   0.00004  -0.00002   0.00002   3.14151
    A5        3.14103  -0.00002  -0.00001  -0.00045  -0.00047   3.14056
    A6        3.14223  -0.00010   0.00012  -0.00283  -0.00271   3.13952
    A7        3.14144   0.00003  -0.00007   0.00122   0.00115   3.14259
    A8        3.14199  -0.00000  -0.00001  -0.00006  -0.00006   3.14192
    A9        3.14159   0.00000   0.00000   0.00000   0.00000   3.14159
   A10        3.14159   0.00000   0.00000   0.00000   0.00000   3.14159
   A11        3.14159  -0.00000   0.00000  -0.00000  -0.00000   3.14159
   A12        3.14159  -0.00000   0.00000  -0.00000  -0.00000   3.14159
   A13        3.14159   0.00000   0.00000   0.00000   0.00000   3.14159
   A14        3.14159   0.00000  -0.00000   0.00000   0.00000   3.14159
   A15        3.14159   0.00000   0.00000   0.00000   0.00000   3.14159
   A16        3.14159   0.00000   0.00000   0.00000   0.00000   3.14159
         Item               Value     Threshold  Converged?
 Maximum Force            0.012766     0.000450     NO 
 RMS     Force            0.003955     0.000300     NO 
 Maximum Displacement     0.014668     0.001800     NO 
 RMS     Displacement     0.004596     0.001200     NO 
 Predicted change in Energy=-2.862236D-04
 Lowest energy point so far.  Saving SCF results.
 GradGradGradGradGradGradGradGradGradGradGradGradGradGradGradGradGradGrad

 Leave Link  103 at Mon Oct 12 17:24:29 2020, MaxMem=  1073741824 cpu:               0.4 elap:               0.0
 (Enter /home/spantaleone/g16/l202.exe)
                          Input orientation:                          
 ---------------------------------------------------------------------
 Center     Atomic      Atomic             Coordinates (Angstroms)
 Number     Number       Type             X           Y           Z
 ---------------------------------------------------------------------
      1          6           0        0.000128    0.000000    0.012883
      2          6           0        0.000778   -0.000000    1.295138
      3          6           0        0.000905    0.000000    2.558458
      4          6           0        0.001720    0.000000    3.838281
      5          6           0        0.002631   -0.000000    5.100598
      6          6           0        0.004878   -0.000000    6.384987
      7          8           0        0.009262    0.000000    7.533191
      8          6           0        0.000240    0.000000   -1.246870
      9          6           0        0.001645    0.000000   -2.540599
     10          6           0        0.003449   -0.000000   -3.813438
 ---------------------------------------------------------------------
                    Distance matrix (angstroms):
                    1          2          3          4          5
     1  C    0.000000
     2  C    1.282255   0.000000
     3  C    2.545575   1.263320   0.000000
     4  C    3.825398   2.543143   1.279823   0.000000
     5  C    5.087716   3.805461   2.542141   1.262318   0.000000
     6  C    6.372106   5.089851   3.826531   2.546709   1.284391
     7  O    7.520314   6.238059   4.974740   3.694918   2.432602
     8  C    1.259754   2.542008   3.805329   5.085151   6.347469
     9  C    2.553482   3.835737   5.099057   6.378879   7.641197
    10  C    3.826323   5.108577   6.371897   7.651719   8.914036
                    6          7          8          9         10
     6  C    0.000000
     7  O    1.148212   0.000000
     8  C    7.631859   8.780066   0.000000
     9  C    8.925587  10.073793   1.293729   0.000000
    10  C   10.198425  11.346631   2.566570   1.272841   0.000000
 Symmetry turned off by external request.
 Stoichiometry    C9O
 Framework group  C1[X(C9O)]
 Deg. of freedom    24
 Full point group                 C1      NOp   1
 Rotational constants (GHZ):      838935.3046422           0.2952277           0.2952276
 Leave Link  202 at Mon Oct 12 17:24:29 2020, MaxMem=  1073741824 cpu:               0.1 elap:               0.0
 (Enter /home/spantaleone/g16/l301.exe)
 Standard basis: CC-pVTZ (5D, 7F)
 Ernie: Thresh=  0.10000D-02 Tol=  0.10000D-05 Strict=F.
 Ernie:  30 primitive shells out of 260 were deleted.
   300 basis functions,   520 primitive gaussians,   350 cartesian basis functions
    31 alpha electrons       31 beta electrons
       nuclear repulsion energy       305.7325036423 Hartrees.
 IExCor= 4336 DFT=T Ex+Corr=M062X ExCW=0 ScaHFX=  0.540000
 ScaDFX=  1.000000  1.000000  1.000000  1.000000 ScalE2=  1.000000  1.000000
 IRadAn=      5 IRanWt=     -1 IRanGd=            0 ICorTp=0 IEmpDi=  4
 NAtoms=   10 NActive=   10 NUniq=   10 SFac= 1.00D+00 NAtFMM=   60 NAOKFM=F Big=F
 Integral buffers will be    131072 words long.
 Raffenetti 2 integral format.
 Two-electron integral symmetry is turned off.
 Leave Link  301 at Mon Oct 12 17:24:29 2020, MaxMem=  1073741824 cpu:               0.9 elap:               0.0
 (Enter /home/spantaleone/g16/l302.exe)
 NPDir=0 NMtPBC=     1 NCelOv=     1 NCel=       1 NClECP=     1 NCelD=      1
         NCelK=      1 NCelE2=     1 NClLst=     1 CellRange=     0.0.
 One-electron integrals computed using PRISM.
 NBasis=   300 RedAO= T EigKep=  1.05D-05  NBF=   300
 NBsUse=   300 1.00D-06 EigRej= -1.00D+00 NBFU=   300
 Precomputing XC quadrature grid using
 IXCGrd= 4 IRadAn=           5 IRanWt=          -1 IRanGd=           0 AccXCQ= 0.00D+00.
 Generated NRdTot=       0 NPtTot=           0 NUsed=           0 NTot=          32
 NSgBfM=   345   345   345   345   345 MxSgAt=    10 MxSgA2=    10.
 Leave Link  302 at Mon Oct 12 17:24:29 2020, MaxMem=  1073741824 cpu:               8.5 elap:               0.4
 (Enter /home/spantaleone/g16/l303.exe)
 DipDrv:  MaxL=1.
 Leave Link  303 at Mon Oct 12 17:24:30 2020, MaxMem=  1073741824 cpu:               1.2 elap:               0.1
 (Enter /home/spantaleone/g16/l401.exe)
 Initial guess from the checkpoint file:  "input.chk"
 B after Tr=     0.000016   -0.000000   -0.000020
         Rot=    1.000000   -0.000000   -0.000010   -0.000001 Ang=  -0.00 deg.
 Guess basis will be translated and rotated to current coordinates.
 JPrj=2 DoOrth=T DoCkMO=T.
 Leave Link  401 at Mon Oct 12 17:24:30 2020, MaxMem=  1073741824 cpu:               4.5 elap:               0.2
 (Enter /home/spantaleone/g16/l502.exe)
 Keep R1 ints in memory in canonical form, NReq=1047054361.
 FoFCou: FMM=F IPFlag=           0 FMFlag=           0 FMFlg1=           0
         NFxFlg=           0 DoJE=F BraDBF=F KetDBF=F FulRan=T
         wScrn=  0.000000 ICntrl=       600 IOpCl=  0 I1Cent=           0 NGrid=           0
         NMat0=    1 NMatS0=  45150 NMatT0=    0 NMatD0=    1 NMtDS0=    0 NMtDT0=    0
 Symmetry not used in FoFCou.
 Two-electron integral symmetry not used.
 Closed shell SCF:
 Using DIIS extrapolation, IDIIS=  1040.
 NGot=  1073741824 LenX=    54202413 LenY=    54079472
 Requested convergence on RMS density matrix=1.00D-08 within  32 cycles.
 Requested convergence on MAX density matrix=1.00D-06.
 Requested convergence on             energy=1.00D-06.
 No special actions if energy rises.

 Cycle   1  Pass 1  IDiag  1:
 E= -417.812155331268    
 DIIS: error= 1.39D-03 at cycle   1 NSaved=   1.
 NSaved= 1 IEnMin= 1 EnMin= -417.812155331268     IErMin= 1 ErrMin= 1.39D-03
 ErrMax= 1.39D-03  0.00D+00 EMaxC= 1.00D-01 BMatC= 2.71D-04 BMatP= 2.71D-04
 IDIUse=3 WtCom= 9.86D-01 WtEn= 1.39D-02
 Coeff-Com:  0.100D+01
 Coeff-En:   0.100D+01
 Coeff:      0.100D+01
 Gap=     1.084 Goal=   None    Shift=    0.000
 GapD=    1.084 DampG=2.000 DampE=1.000 DampFc=2.0000 IDamp=-1.
 RMSDP=3.34D-04 MaxDP=1.44D-02              OVMax= 9.06D-03

 Cycle   2  Pass 1  IDiag  1:
 E= -417.812301773724     Delta-E=       -0.000146442456 Rises=F Damp=F
 DIIS: error= 8.97D-04 at cycle   2 NSaved=   2.
 NSaved= 2 IEnMin= 2 EnMin= -417.812301773724     IErMin= 2 ErrMin= 8.97D-04
 ErrMax= 8.97D-04  0.00D+00 EMaxC= 1.00D-01 BMatC= 9.26D-05 BMatP= 2.71D-04
 IDIUse=3 WtCom= 9.91D-01 WtEn= 8.97D-03
 Coeff-Com:  0.308D+00 0.692D+00
 Coeff-En:   0.000D+00 0.100D+01
 Coeff:      0.305D+00 0.695D+00
 Gap=     0.161 Goal=   None    Shift=    0.000
 RMSDP=3.64D-04 MaxDP=2.63D-02 DE=-1.46D-04 OVMax= 1.08D-02

 Cycle   3  Pass 1  IDiag  1:
 E= -417.812271182626     Delta-E=        0.000030591098 Rises=F Damp=F
 DIIS: error= 1.19D-03 at cycle   3 NSaved=   3.
 NSaved= 3 IEnMin= 2 EnMin= -417.812301773724     IErMin= 2 ErrMin= 8.97D-04
 ErrMax= 1.19D-03  0.00D+00 EMaxC= 1.00D-01 BMatC= 9.38D-05 BMatP= 9.26D-05
 IDIUse=3 WtCom= 9.88D-01 WtEn= 1.19D-02
 Coeff-Com:  0.440D-01 0.491D+00 0.465D+00
 Coeff-En:   0.000D+00 0.551D+00 0.449D+00
 Coeff:      0.435D-01 0.492D+00 0.465D+00
 Gap=     0.161 Goal=   None    Shift=    0.000
 RMSDP=1.62D-04 MaxDP=1.14D-02 DE= 3.06D-05 OVMax= 7.58D-03

 Cycle   4  Pass 1  IDiag  1:
 E= -417.812396461189     Delta-E=       -0.000125278563 Rises=F Damp=F
 DIIS: error= 3.03D-04 at cycle   4 NSaved=   4.
 NSaved= 4 IEnMin= 4 EnMin= -417.812396461189     IErMin= 4 ErrMin= 3.03D-04
 ErrMax= 3.03D-04  0.00D+00 EMaxC= 1.00D-01 BMatC= 5.21D-06 BMatP= 9.26D-05
 IDIUse=3 WtCom= 9.97D-01 WtEn= 3.03D-03
 Coeff-Com: -0.338D-02 0.157D+00 0.243D+00 0.603D+00
 Coeff-En:   0.000D+00 0.000D+00 0.276D-01 0.972D+00
 Coeff:     -0.337D-02 0.157D+00 0.242D+00 0.604D+00
 Gap=     0.161 Goal=   None    Shift=    0.000
 RMSDP=5.22D-05 MaxDP=3.72D-03 DE=-1.25D-04 OVMax= 1.72D-03

 Cycle   5  Pass 1  IDiag  1:
 E= -417.812402644998     Delta-E=       -0.000006183809 Rises=F Damp=F
 DIIS: error= 1.23D-04 at cycle   5 NSaved=   5.
 NSaved= 5 IEnMin= 5 EnMin= -417.812402644998     IErMin= 5 ErrMin= 1.23D-04
 ErrMax= 1.23D-04  0.00D+00 EMaxC= 1.00D-01 BMatC= 1.67D-06 BMatP= 5.21D-06
 IDIUse=3 WtCom= 9.99D-01 WtEn= 1.23D-03
 Coeff-Com: -0.947D-02-0.206D-02 0.683D-01 0.409D+00 0.535D+00
 Coeff-En:   0.000D+00 0.000D+00 0.000D+00 0.199D+00 0.801D+00
 Coeff:     -0.946D-02-0.206D-02 0.682D-01 0.408D+00 0.535D+00
 Gap=     0.161 Goal=   None    Shift=    0.000
 RMSDP=9.57D-06 MaxDP=6.58D-04 DE=-6.18D-06 OVMax= 4.71D-04

 Cycle   6  Pass 1  IDiag  1:
 E= -417.812404449058     Delta-E=       -0.000001804060 Rises=F Damp=F
 DIIS: error= 2.42D-05 at cycle   6 NSaved=   6.
 NSaved= 6 IEnMin= 6 EnMin= -417.812404449058     IErMin= 6 ErrMin= 2.42D-05
 ErrMax= 2.42D-05  0.00D+00 EMaxC= 1.00D-01 BMatC= 7.88D-08 BMatP= 1.67D-06
 IDIUse=1 WtCom= 1.00D+00 WtEn= 0.00D+00
 Coeff-Com: -0.380D-02-0.158D-01 0.129D-01 0.145D+00 0.265D+00 0.597D+00
 Coeff:     -0.380D-02-0.158D-01 0.129D-01 0.145D+00 0.265D+00 0.597D+00
 Gap=     0.161 Goal=   None    Shift=    0.000
 RMSDP=4.66D-06 MaxDP=3.41D-04 DE=-1.80D-06 OVMax= 9.41D-05

 Cycle   7  Pass 1  IDiag  1:
 E= -417.812404523178     Delta-E=       -0.000000074120 Rises=F Damp=F
 DIIS: error= 7.23D-06 at cycle   7 NSaved=   7.
 NSaved= 7 IEnMin= 7 EnMin= -417.812404523178     IErMin= 7 ErrMin= 7.23D-06
 ErrMax= 7.23D-06  0.00D+00 EMaxC= 1.00D-01 BMatC= 1.39D-08 BMatP= 7.88D-08
 IDIUse=1 WtCom= 1.00D+00 WtEn= 0.00D+00
 Coeff-Com:  0.532D-04-0.961D-02-0.111D-01-0.275D-01 0.168D-01 0.316D+00
 Coeff-Com:  0.715D+00
 Coeff:      0.532D-04-0.961D-02-0.111D-01-0.275D-01 0.168D-01 0.316D+00
 Coeff:      0.715D+00
 Gap=     0.161 Goal=   None    Shift=    0.000
 RMSDP=4.16D-06 MaxDP=2.97D-04 DE=-7.41D-08 OVMax= 5.59D-05

 Cycle   8  Pass 1  IDiag  1:
 E= -417.812404535308     Delta-E=       -0.000000012129 Rises=F Damp=F
 DIIS: error= 4.74D-06 at cycle   8 NSaved=   8.
 NSaved= 8 IEnMin= 8 EnMin= -417.812404535308     IErMin= 8 ErrMin= 4.74D-06
 ErrMax= 4.74D-06  0.00D+00 EMaxC= 1.00D-01 BMatC= 3.30D-09 BMatP= 1.39D-08
 IDIUse=1 WtCom= 1.00D+00 WtEn= 0.00D+00
 Coeff-Com:  0.492D-03-0.462D-02-0.795D-02-0.281D-01-0.100D-01 0.145D+00
 Coeff-Com:  0.450D+00 0.456D+00
 Coeff:      0.492D-03-0.462D-02-0.795D-02-0.281D-01-0.100D-01 0.145D+00
 Coeff:      0.450D+00 0.456D+00
 Gap=     0.161 Goal=   None    Shift=    0.000
 RMSDP=3.79D-07 MaxDP=2.41D-05 DE=-1.21D-08 OVMax= 3.09D-05

 Cycle   9  Pass 1  IDiag  1:
 E= -417.812404539279     Delta-E=       -0.000000003971 Rises=F Damp=F
 DIIS: error= 1.67D-06 at cycle   9 NSaved=   9.
 NSaved= 9 IEnMin= 9 EnMin= -417.812404539279     IErMin= 9 ErrMin= 1.67D-06
 ErrMax= 1.67D-06  0.00D+00 EMaxC= 1.00D-01 BMatC= 2.08D-10 BMatP= 3.30D-09
 IDIUse=1 WtCom= 1.00D+00 WtEn= 0.00D+00
 Coeff-Com:  0.224D-03-0.126D-02-0.306D-02-0.124D-01-0.725D-02 0.430D-01
 Coeff-Com:  0.163D+00 0.246D+00 0.571D+00
 Coeff:      0.224D-03-0.126D-02-0.306D-02-0.124D-01-0.725D-02 0.430D-01
 Coeff:      0.163D+00 0.246D+00 0.571D+00
 Gap=     0.161 Goal=   None    Shift=    0.000
 RMSDP=1.82D-07 MaxDP=1.11D-05 DE=-3.97D-09 OVMax= 8.00D-06

 Cycle  10  Pass 1  IDiag  1:
 E= -417.812404539473     Delta-E=       -0.000000000195 Rises=F Damp=F
 DIIS: error= 6.90D-07 at cycle  10 NSaved=  10.
 NSaved=10 IEnMin=10 EnMin= -417.812404539473     IErMin=10 ErrMin= 6.90D-07
 ErrMax= 6.90D-07  0.00D+00 EMaxC= 1.00D-01 BMatC= 5.79D-11 BMatP= 2.08D-10
 IDIUse=1 WtCom= 1.00D+00 WtEn= 0.00D+00
 Coeff-Com:  0.200D-04 0.448D-03 0.429D-04-0.114D-02-0.245D-02-0.109D-01
 Coeff-Com: -0.109D-01 0.503D-01 0.391D+00 0.584D+00
 Coeff:      0.200D-04 0.448D-03 0.429D-04-0.114D-02-0.245D-02-0.109D-01
 Coeff:     -0.109D-01 0.503D-01 0.391D+00 0.584D+00
 Gap=     0.161 Goal=   None    Shift=    0.000
 RMSDP=1.85D-07 MaxDP=1.30D-05 DE=-1.95D-10 OVMax= 2.54D-06

 Cycle  11  Pass 1  IDiag  1:
 E= -417.812404539537     Delta-E=       -0.000000000063 Rises=F Damp=F
 DIIS: error= 1.16D-07 at cycle  11 NSaved=  11.
 NSaved=11 IEnMin=11 EnMin= -417.812404539537     IErMin=11 ErrMin= 1.16D-07
 ErrMax= 1.16D-07  0.00D+00 EMaxC= 1.00D-01 BMatC= 3.29D-12 BMatP= 5.79D-11
 IDIUse=1 WtCom= 1.00D+00 WtEn= 0.00D+00
 Coeff-Com: -0.580D-05 0.332D-03 0.283D-03 0.431D-03-0.512D-03-0.870D-02
 Coeff-Com: -0.175D-01 0.780D-02 0.164D+00 0.300D+00 0.554D+00
 Coeff:     -0.580D-05 0.332D-03 0.283D-03 0.431D-03-0.512D-03-0.870D-02
 Coeff:     -0.175D-01 0.780D-02 0.164D+00 0.300D+00 0.554D+00
 Gap=     0.161 Goal=   None    Shift=    0.000
[...]
 DD1Dir:  Pass   1 NRAB=    29 NRAA=     0 NRBB=     0 NR=    58.
 DD1Dir:  Pass   2 NRAB=    29 NRAA=     0 NRBB=     0 NR=    58.
 DD1Dir:  Pass   3 NRAB=    29 NRAA=     0 NRBB=     0 NR=    58.
 DD1Dir:  Pass   4 NRAB=    29 NRAA=     0 NRBB=     0 NR=    58.
 DD1Dir:  Pass   5 NRAB=    29 NRAA=     0 NRBB=     0 NR=    58.
 DD1Dir:  Pass   6 NRAB=    29 NRAA=     0 NRBB=     0 NR=    58.
 DD1Dir:  Pass   7 NRAB=    29 NRAA=     0 NRBB=     0 NR=    58.
 DD1Dir:  Pass   8 NRAB=    28 NRAA=     0 NRBB=     0 NR=    56.
 A-vector RMS=  5.0168903D-07 Max=  1.3366766D-05 conv= 1.00D-05.
 RLE energy=       -1.5392432000
 DE(Corr)=  -1.5392439     E(CORR)=     -416.97455729     Delta= 1.25D-06
 NORM(A)=   0.12753979D+01
 Iteration Nr.  16
 **********************
 DD1Dir will call FoFJK   8 times, MxPair=        58
 NAB=   231 NAA=     0 NBB=     0 NumPrc= 24.
 DD1Dir:  Pass   1 NRAB=    29 NRAA=     0 NRBB=     0 NR=    58.
 DD1Dir:  Pass   2 NRAB=    29 NRAA=     0 NRBB=     0 NR=    58.
 DD1Dir:  Pass   3 NRAB=    29 NRAA=     0 NRBB=     0 NR=    58.
 DD1Dir:  Pass   4 NRAB=    29 NRAA=     0 NRBB=     0 NR=    58.
 DD1Dir:  Pass   5 NRAB=    29 NRAA=     0 NRBB=     0 NR=    58.
 DD1Dir:  Pass   6 NRAB=    29 NRAA=     0 NRBB=     0 NR=    58.
 DD1Dir:  Pass   7 NRAB=    29 NRAA=     0 NRBB=     0 NR=    58.
 DD1Dir:  Pass   8 NRAB=    28 NRAA=     0 NRBB=     0 NR=    56.
 A-vector RMS=  3.2594937D-07 Max=  6.1341593D-06 conv= 1.00D-05.
 RLE energy=       -1.5392441148
 DE(Corr)=  -1.5392446     E(CORR)=     -416.97455802     Delta=-7.25D-07
 NORM(A)=   0.12753959D+01
 Iteration Nr.  17
 **********************
 DD1Dir will call FoFJK   8 times, MxPair=        58
 NAB=   231 NAA=     0 NBB=     0 NumPrc= 24.
 DD1Dir:  Pass   1 NRAB=    29 NRAA=     0 NRBB=     0 NR=    58.
 DD1Dir:  Pass   2 NRAB=    29 NRAA=     0 NRBB=     0 NR=    58.
 DD1Dir:  Pass   3 NRAB=    29 NRAA=     0 NRBB=     0 NR=    58.
 DD1Dir:  Pass   4 NRAB=    29 NRAA=     0 NRBB=     0 NR=    58.
 DD1Dir:  Pass   5 NRAB=    29 NRAA=     0 NRBB=     0 NR=    58.
 DD1Dir:  Pass   6 NRAB=    29 NRAA=     0 NRBB=     0 NR=    58.
 DD1Dir:  Pass   7 NRAB=    29 NRAA=     0 NRBB=     0 NR=    58.
 DD1Dir:  Pass   8 NRAB=    28 NRAA=     0 NRBB=     0 NR=    56.
 A-vector RMS=  2.0778926D-07 Max=  5.7898548D-06 conv= 1.00D-05.
 RLE energy=       -1.5392433459
 DE(Corr)=  -1.5392429     E(CORR)=     -416.97455636     Delta= 1.66D-06
 NORM(A)=   0.12753947D+01
 Iteration Nr.  18
 **********************
 DD1Dir will call FoFJK   8 times, MxPair=        58
 NAB=   231 NAA=     0 NBB=     0 NumPrc= 24.
 DD1Dir:  Pass   1 NRAB=    29 NRAA=     0 NRBB=     0 NR=    58.
 DD1Dir:  Pass   2 NRAB=    29 NRAA=     0 NRBB=     0 NR=    58.
 DD1Dir:  Pass   3 NRAB=    29 NRAA=     0 NRBB=     0 NR=    58.
 DD1Dir:  Pass   4 NRAB=    29 NRAA=     0 NRBB=     0 NR=    58.
 DD1Dir:  Pass   5 NRAB=    29 NRAA=     0 NRBB=     0 NR=    58.
 DD1Dir:  Pass   6 NRAB=    29 NRAA=     0 NRBB=     0 NR=    58.
 DD1Dir:  Pass   7 NRAB=    29 NRAA=     0 NRBB=     0 NR=    58.
 DD1Dir:  Pass   8 NRAB=    28 NRAA=     0 NRBB=     0 NR=    56.
 A-vector RMS=  1.2108671D-07 Max=  2.8518936D-06 conv= 1.00D-05.
 RLE energy=       -1.5392433309
 DE(Corr)=  -1.5392435     E(CORR)=     -416.97455696     Delta=-6.00D-07
 NORM(A)=   0.12753942D+01
 Iteration Nr.  19
 **********************
 DD1Dir will call FoFJK   8 times, MxPair=        58
 NAB=   231 NAA=     0 NBB=     0 NumPrc= 24.
 DD1Dir:  Pass   1 NRAB=    29 NRAA=     0 NRBB=     0 NR=    58.
 DD1Dir:  Pass   2 NRAB=    29 NRAA=     0 NRBB=     0 NR=    58.
 DD1Dir:  Pass   3 NRAB=    29 NRAA=     0 NRBB=     0 NR=    58.
 DD1Dir:  Pass   4 NRAB=    29 NRAA=     0 NRBB=     0 NR=    58.
 DD1Dir:  Pass   5 NRAB=    29 NRAA=     0 NRBB=     0 NR=    58.
 DD1Dir:  Pass   6 NRAB=    29 NRAA=     0 NRBB=     0 NR=    58.
 DD1Dir:  Pass   7 NRAB=    29 NRAA=     0 NRBB=     0 NR=    58.
 DD1Dir:  Pass   8 NRAB=    28 NRAA=     0 NRBB=     0 NR=    56.
 A-vector RMS=  7.1731416D-08 Max=  1.9349789D-06 conv= 1.00D-05.
 RLE energy=       -1.5392434155
 DE(Corr)=  -1.5392435     E(CORR)=     -416.97455688     Delta= 7.78D-08
 NORM(A)=   0.12753938D+01
 CI/CC converged in   19 iterations to DelEn= 7.78D-08 Conv= 1.00D-07 ErrA1= 7.17D-08 Conv= 1.00D-05
 Wavefunction amplitudes converged. E(Corr)=     -416.97455688    
 Largest amplitude= 6.94D-02
 T4(AAA)= -0.41374362D-02
 T4(AAB)= -0.59812035D-01
 T5(AAA)=  0.18919549D-03
 T5(AAB)=  0.29077402D-02
 Time for triples=   504439.50 seconds.
 T4(CCSD)= -0.12789894D+00
 T5(CCSD)=  0.61938714D-02
 CCSD(T)= -0.41709626195D+03
 Discarding MO integrals.
 Leave Link  913 at Tue Oct 13 02:41:00 2020, MaxMem=  1073741824 cpu:          772591.0 elap:           32369.8
 (Enter /home/spantaleone/g16/l601.exe)
 Copying SCF densities to generalized density rwf, IOpCl= 0 IROHF=0.

 **********************************************************************

            Population analysis using the SCF Density.

 **********************************************************************

 Orbital symmetries:
       Occupied  (A) (A) (A) (A) (A) (A) (A) (A) (A) (A) (A) (A)
                 (A) (A) (A) (A) (A) (A) (A) (A) (A) (A) (A) (A)
                 (A) (A) (A) (A) (A) (A) (A)
       Virtual   (A) (A) (A) (A) (A) (A) (A) (A) (A) (A) (A) (A)
                 (A) (A) (A) (A) (A) (A) (A) (A) (A) (A) (A) (A)
                 (A) (A) (A) (A) (A) (A) (A) (A) (A) (A) (A) (A)
                 (A) (A) (A) (A) (A) (A) (A) (A) (A) (A) (A) (A)
                 (A) (A) (A) (A) (A) (A) (A) (A) (A) (A) (A) (A)
                 (A) (A) (A) (A) (A) (A) (A) (A) (A) (A) (A) (A)
                 (A) (A) (A) (A) (A) (A) (A) (A) (A) (A) (A) (A)
                 (A) (A) (A) (A) (A) (A) (A) (A) (A) (A) (A) (A)
                 (A) (A) (A) (A) (A) (A) (A) (A) (A) (A) (A) (A)
                 (A) (A) (A) (A) (A) (A) (A) (A) (A) (A) (A) (A)
                 (A) (A) (A) (A) (A) (A) (A) (A) (A) (A) (A) (A)
                 (A) (A) (A) (A) (A) (A) (A) (A) (A) (A) (A) (A)
                 (A) (A) (A) (A) (A) (A) (A) (A) (A) (A) (A) (A)
                 (A) (A) (A) (A) (A) (A) (A) (A) (A) (A) (A) (A)
                 (A) (A) (A) (A) (A) (A) (A) (A) (A) (A) (A) (A)
                 (A) (A) (A) (A) (A) (A) (A) (A) (A) (A) (A) (A)
                 (A) (A) (A) (A) (A) (A) (A) (A) (A) (A) (A) (A)
                 (A) (A) (A) (A) (A) (A) (A) (A) (A) (A) (A) (A)
                 (A) (A) (A) (A) (A) (A) (A) (A) (A) (A) (A) (A)
                 (A) (A) (A) (A) (A) (A) (A) (A) (A) (A) (A) (A)
                 (A) (A) (A) (A) (A) (A) (A) (A) (A) (A) (A) (A)
                 (A) (A) (A) (A) (A) (A) (A) (A) (A) (A) (A) (A)
                 (A) (A) (A) (A) (A) (A) (A) (A) (A) (A) (A) (A)
                 (A) (A) (A) (A) (A) (A) (A) (A) (A) (A) (A) (A)
                 (A) (A) (A) (A) (A) (A) (A) (A) (A) (A) (A) (A)
                 (A) (A) (A) (A) (A) (A) (A) (A) (A) (A) (A) (A)
                 (A) (A) (A) (A) (A) (A) (A) (A) (A) (A) (A) (A)
                 (A) (A) (A) (A) (A) (A) (A) (A) (A) (A) (A) (A)
                 (A) (A) (A) (A) (A) (A) (A) (A) (A) (A) (A) (A)
                 (A) (A) (A) (A) (A) (A) (A) (A) (A) (A) (A) (A)
                 (A) (A) (A) (A) (A) (A) (A) (A) (A) (A) (A) (A)
                 (A) (A) (A) (A) (A) (A) (A) (A) (A) (A) (A) (A)
                 (A) (A) (A) (A) (A) (A) (A) (A) (A) (A) (A) (A)
                 (A) (A) (A) (A) (A) (A) (A) (A) (A) (A) (A) (A)
                 (A) (A) (A) (A) (A) (A) (A) (A) (A) (A) (A) (A)
                 (A) (A) (A)
 The electronic state is 1-A.
 Alpha  occ. eigenvalues --  -20.68988 -11.45857 -11.39913 -11.38314 -11.37202
 Alpha  occ. eigenvalues --  -11.29496 -11.29336 -11.28873 -11.27920 -11.22676
 Alpha  occ. eigenvalues --   -1.53961  -1.18312  -1.15145  -1.10709  -1.05196
 Alpha  occ. eigenvalues --   -0.99511  -0.92773  -0.86817  -0.82342  -0.78980
 Alpha  occ. eigenvalues --   -0.69259  -0.69259  -0.58139  -0.58139  -0.52267
 Alpha  occ. eigenvalues --   -0.52267  -0.45839  -0.43649  -0.43649  -0.32715
 Alpha  occ. eigenvalues --   -0.32715
 Alpha virt. eigenvalues --   -0.05905  -0.05905   0.03136   0.04275   0.05512
 Alpha virt. eigenvalues --    0.05512   0.06155   0.07364   0.07364   0.07441
 Alpha virt. eigenvalues --    0.08203   0.08203   0.09601   0.09875   0.09875
 Alpha virt. eigenvalues --    0.11747   0.11747   0.12482   0.14633   0.14669
 Alpha virt. eigenvalues --    0.14669   0.16548   0.17573   0.18527   0.18527
 Alpha virt. eigenvalues --    0.20591   0.20966   0.20966   0.21398   0.22266
 Alpha virt. eigenvalues --    0.22266   0.22388   0.22388   0.23583   0.23791
 Alpha virt. eigenvalues --    0.23791   0.24728   0.24728   0.25196   0.26453
 Alpha virt. eigenvalues --    0.28365   0.28365   0.28956   0.30097   0.30097
 Alpha virt. eigenvalues --    0.30608   0.32010   0.32010   0.33057   0.33057
 Alpha virt. eigenvalues --    0.33066   0.33066   0.33826   0.33826   0.34135
 Alpha virt. eigenvalues --    0.35338   0.37352   0.37353   0.38793   0.38885
 Alpha virt. eigenvalues --    0.38885   0.39416   0.39416   0.39938   0.40899
 Alpha virt. eigenvalues --    0.40899   0.42163   0.44595   0.44684   0.44684
 Alpha virt. eigenvalues --    0.45465   0.46221   0.46221   0.47082   0.48521
 Alpha virt. eigenvalues --    0.48521   0.49784   0.51495   0.53180   0.53180
 Alpha virt. eigenvalues --    0.54886   0.54886   0.55516   0.55517   0.55991
 Alpha virt. eigenvalues --    0.58330   0.58330   0.59168   0.65929   0.66182
 Alpha virt. eigenvalues --    0.66182   0.68562   0.72514   0.74236   0.74237
 Alpha virt. eigenvalues --    0.76829   0.76829   0.77690   0.80552   0.80552
 Alpha virt. eigenvalues --    0.80611   0.80611   0.81420   0.81827   0.81827
 Alpha virt. eigenvalues --    0.83352   0.83352   0.83745   0.83746   0.84123
 Alpha virt. eigenvalues --    0.84123   0.84461   0.85365   0.85365   0.86132
 Alpha virt. eigenvalues --    0.86132   0.89508   0.89508   0.90416   0.90416
 Alpha virt. eigenvalues --    0.90746   0.92517   0.92517   0.93322   0.93609
 Alpha virt. eigenvalues --    0.93609   0.94574   0.95335   0.95335   0.95669
 Alpha virt. eigenvalues --    0.95669   0.99269   0.99810   0.99810   1.00103
 Alpha virt. eigenvalues --    1.00103   1.00978   1.02628   1.02628   1.03483
 Alpha virt. eigenvalues --    1.03483   1.05431   1.05889   1.05889   1.09378
 Alpha virt. eigenvalues --    1.09378   1.09649   1.09649   1.10983   1.13117
 Alpha virt. eigenvalues --    1.13117   1.18633   1.19819   1.19888   1.19888
 Alpha virt. eigenvalues --    1.19994   1.19995   1.20644   1.20644   1.22947
 Alpha virt. eigenvalues --    1.22947   1.23035   1.25213   1.27929   1.27929
 Alpha virt. eigenvalues --    1.30609   1.30609   1.32072   1.32751   1.32751
 Alpha virt. eigenvalues --    1.34950   1.34950   1.35480   1.40169   1.40169
 Alpha virt. eigenvalues --    1.40251   1.43985   1.43985   1.44701   1.46124
 Alpha virt. eigenvalues --    1.46124   1.48035   1.50357   1.50357   1.50685
 Alpha virt. eigenvalues --    1.55488   1.57986   1.60893   1.60893   1.61392
 Alpha virt. eigenvalues --    1.61392   1.62412   1.62412   1.64035   1.68309
 Alpha virt. eigenvalues --    1.68309   1.69546   1.69547   1.69931   1.75660
 Alpha virt. eigenvalues --    1.75660   1.75928   1.77326   1.77327   1.77855
 Alpha virt. eigenvalues --    1.77855   1.80196   1.80196   1.86050   1.86050
 Alpha virt. eigenvalues --    1.89622   1.90568   1.90569   1.92518   1.92518
 Alpha virt. eigenvalues --    2.04582   2.07503   2.07503   2.08885   2.08885
 Alpha virt. eigenvalues --    2.09350   2.09350   2.11847   2.11847   2.14290
 Alpha virt. eigenvalues --    2.14290   2.18269   2.18269   2.23297   2.23297
 Alpha virt. eigenvalues --    2.26634   2.26634   2.30198   2.30199   2.33015
 Alpha virt. eigenvalues --    2.33015   2.33037   2.35422   2.43003   2.43818
 Alpha virt. eigenvalues --    2.43818   2.46849   2.46849   2.47938   2.52992
 Alpha virt. eigenvalues --    2.56280   2.59516   2.60378   2.60379   2.64401
 Alpha virt. eigenvalues --    2.69628   2.69855   2.69855   2.71219   2.71220
 Alpha virt. eigenvalues --    2.79337   2.89691   2.89691   2.96360   2.96989
 Alpha virt. eigenvalues --    2.96990   3.07394   3.07394   3.11090   3.11090
 Alpha virt. eigenvalues --    3.15325   3.16198   3.16198   3.18645   3.18645
 Alpha virt. eigenvalues --    3.19831   3.20110   3.20110   3.21937   3.21937
 Alpha virt. eigenvalues --    3.22851   3.22851   3.23306   3.23306   3.24297
 Alpha virt. eigenvalues --    3.24297   3.26924   3.28374   3.28375   3.28737
 Alpha virt. eigenvalues --    3.28737   3.28930   3.28930   3.31191   3.31191
 Alpha virt. eigenvalues --    3.35234   3.36306   3.36306   3.36758   3.36758
 Alpha virt. eigenvalues --    3.41270   3.41270   3.43041   3.43977   3.43977
 Alpha virt. eigenvalues --    3.45495   3.46798   3.46800   3.46929   3.49380
 Alpha virt. eigenvalues --    3.56184   3.56184   3.56495   3.56501   3.56604
 Alpha virt. eigenvalues --    3.60778   3.61829   3.61829   3.64283   3.64283
 Alpha virt. eigenvalues --    3.66432   3.66432   3.70408   3.71286   3.71286
 Alpha virt. eigenvalues --    3.73125   3.74044   3.74044   3.75247   3.75247
 Alpha virt. eigenvalues --    3.76177   3.76177   3.76488   3.76488   3.79535
 Alpha virt. eigenvalues --    3.79535   3.82007   3.84260   3.84260   3.86219
 Alpha virt. eigenvalues --    3.86219   3.87616   3.87617   3.90364   3.90364
 Alpha virt. eigenvalues --    3.90784   3.90784   3.97157   3.97157   4.02495
 Alpha virt. eigenvalues --    4.02495   4.06849   4.07382   4.07385   4.13472
 Alpha virt. eigenvalues --    4.13472   4.20059   4.20059   4.23332   4.27522
 Alpha virt. eigenvalues --    4.27522   4.32575   4.34307   4.34307   4.35388
 Alpha virt. eigenvalues --    4.39125   4.39125   4.46507   4.47169   4.47169
 Alpha virt. eigenvalues --    4.60010   4.67745   4.67745   4.72301   4.74984
 Alpha virt. eigenvalues --    4.74985   4.83261   4.83261   4.92194   4.97423
 Alpha virt. eigenvalues --    4.97423   5.00863   5.00863   5.19629   5.31075
 Alpha virt. eigenvalues --    5.31075   5.53614   5.66505   5.66505   5.72952
 Alpha virt. eigenvalues --    5.78532   5.97829   6.01403   6.01403   6.09234
 Alpha virt. eigenvalues --    6.28234   6.34522   6.41034   6.41602   6.41603
 Alpha virt. eigenvalues --    6.47356   6.47356   6.60565   6.73575   6.82555
 Alpha virt. eigenvalues --    6.82555   6.86057   6.86057   7.18606   7.18606
 Alpha virt. eigenvalues --    7.45368   7.45369   7.55710   7.60982   7.60982
 Alpha virt. eigenvalues --    7.85836   8.03418   8.03418  12.67486  16.52760
 Alpha virt. eigenvalues --   16.58822  17.01329  17.87547  18.47850  20.60903
 Alpha virt. eigenvalues --   21.62448  22.55868  22.69036
          Condensed to atoms (all electrons):
               1          2          3          4          5          6
     1  C    9.117704  -0.906228  -0.632043   0.306190   0.050852  -0.001539
     2  C   -0.906228   7.209005  -0.877570   0.456736  -0.147628  -0.038322
     3  C   -0.632043  -0.877570   8.307957  -1.763395   0.145736   0.280654
     4  C    0.306190   0.456736  -1.763395   8.307877  -0.372673  -0.852353
     5  C    0.050852  -0.147628   0.145736  -0.372673   6.741235  -0.962064
     6  C   -0.001539  -0.038322   0.280654  -0.852353  -0.962064   7.317256
     7  O    0.000690  -0.002630   0.016790  -0.029666  -0.202344   0.531543
     8  C   -1.267844   0.288918   0.229188  -0.124633  -0.004037  -0.003058
     9  C   -1.096530   0.269786   0.017239  -0.020970   0.002102   0.000664
    10  C   -0.021043   0.038430  -0.027898   0.008523  -0.000533   0.000077
               7          8          9         10
     1  C    0.000690  -1.267844  -1.096530  -0.021043
     2  C   -0.002630   0.288918   0.269786   0.038430
     3  C    0.016790   0.229188   0.017239  -0.027898
     4  C   -0.029666  -0.124633  -0.020970   0.008523
     5  C   -0.202344  -0.004037   0.002102  -0.000533
     6  C    0.531543  -0.003058   0.000664   0.000077
     7  O    8.169196   0.000206  -0.000017  -0.000001
     8  C    0.000206   6.321469   0.298599  -0.159849
     9  C   -0.000017   0.298599   6.821313  -0.287104
    10  C   -0.000001  -0.159849  -0.287104   7.405090
 Mulliken charges:
               1
     1  C    0.449792
     2  C   -0.290496
     3  C    0.303341
     4  C    0.084365
     5  C    0.749355
     6  C   -0.272857
     7  O   -0.483766
     8  C    0.421040
     9  C   -0.005081
    10  C   -0.955692
 Sum of Mulliken charges =  -0.00000
 Mulliken charges with hydrogens summed into heavy atoms:
               1
     1  C    0.449792
     2  C   -0.290496
     3  C    0.303341
     4  C    0.084365
     5  C    0.749355
     6  C   -0.272857
     7  O   -0.483766
     8  C    0.421040
     9  C   -0.005081
    10  C   -0.955692
 Electronic spatial extent (au):  <R**2>=           3210.5062
 Charge=             -0.0000 electrons
 Dipole moment (field-independent basis, Debye):
    X=              6.6378    Y=             -0.0045    Z=              0.0000  Tot=              6.6378
 Quadrupole moment (field-independent basis, Debye-Ang):
   XX=            -94.1787   YY=            -55.6765   ZZ=            -55.6765
   XY=              0.0202   XZ=             -0.0000   YZ=              0.0000
 Traceless Quadrupole moment (field-independent basis, Debye-Ang):
   XX=            -25.6682   YY=             12.8341   ZZ=             12.8341
   XY=              0.0202   XZ=             -0.0000   YZ=              0.0000
 Octapole moment (field-independent basis, Debye-Ang**2):
  XXX=            293.4775  YYY=              0.0206  ZZZ=              0.0000  XYY=             21.0955
  XXY=             -0.2223  XXZ=              0.0000  XZZ=             21.0955  YZZ=              0.0069
  YYZ=              0.0000  XYZ=             -0.0000
 Hexadecapole moment (field-independent basis, Debye-Ang**3):
 XXXX=          -6729.4997 YYYY=            -63.0731 ZZZZ=            -63.0717 XXXY=              1.0014
 XXXZ=             -0.0000 YYYX=              0.1865 YYYZ=              0.0000 ZZZX=              0.0000
 ZZZY=              0.0000 XXYY=           -767.6164 XXZZ=           -767.6151 YYZZ=            -21.0241
 XXYZ=              0.0000 YYXZ=              0.0000 ZZXY=              0.0622
 N-N= 3.056767977184D+02 E-N=-1.579670177475D+03  KE= 4.148502852834D+02
 Leave Link  601 at Tue Oct 13 02:41:01 2020, MaxMem=  1073741824 cpu:               8.3 elap:               0.6
 (Enter /home/spantaleone/g16/l9999.exe)
 1\1\GINC-N1957\SP\RCCSD(T)-FC\Aug-CC-pVTZ\C9O1\SPANTALEONE\13-Oct-2020
 \0\\#P CCSD(T)/aug-cc-pvtz geom=allcheck guess=read\\Title\\0,1\C,0,0.
 0002641922,0.0000000402,0.012284439\C,0,0.0004260602,0.0000000425,1.29
 58410003\C,0,0.0003717983,0.0000000165,2.5579139857\C,0,0.0013445283,-
 0.00000002,3.8390375593\C,0,0.0030828267,-0.0000000099,5.1002262031\C,
 0,0.0060124511,0.0000000015,6.3854881557\O,0,0.0083927929,-0.000000026
 5,7.5344454262\C,0,0.0008778034,0.0000000247,-1.2467444764\C,0,0.00178
 7327,-0.0000000106,-2.5414863912\C,0,0.0030766317,-0.0000000584,-3.814
 3765609\\Version=ES64L-G16RevB.01\State=1-A\HF=-415.4353134\MP2=-417.0
 31953\MP3=-416.9657062\MP4D=-417.0278286\MP4DQ=-416.9447639\MP4SDQ=-41
 6.977958\CCSD=-416.9745569\CCSD(T)=-417.096262\RMSD=7.530e-09\PG=C01 [
 X(C9O1)]\\@


 WHEN A MATHEMATICIAN ENGAGED IN INVESTIGATING
 PHYSICAL ACTIONS AND RESULTS HAS ARRIVED AT HIS
 CONCLUSIONS, MAY THEY NOT BE EXPRESSED IN COMMON
 LANGUAGE AS FULLY, CLEARLY, AND DEFINITELY AS IN
 MATHEMATICAL FORMULAE?
           - LETTER FROM M. FARADAY TO J.C. MAXWELL, 1857.
 Job cpu time:       9 days  3 hours 16 minutes 13.9 seconds.
 Elapsed time:       0 days  9 hours 11 minutes 12.5 seconds.
 File lengths (MBytes):  RWF=  74145 Int=      0 D2E=      0 Chk=     18 Scr=      1
 Normal termination of Gaussian 16 at Tue Oct 13 02:41:10 2020.
