2
 energy: -6.660948926730 gnorm: 0.000138100521 xtb: 6.2.2 (9d81278992624c895f80dd42a50cac0aa55982e2)
O         0.61140335360214   -0.00000320130047   -0.00000213420032
N        -0.61140335360214    0.00000320130047    0.00000213420032
