2
 energy: -6.642028746864 gnorm: 0.186503529076 xtb: 6.2.2 (9d81278992624c895f80dd42a50cac0aa55982e2)
O         0.67663100000000    0.00000000000000    0.00000000000000
N        -0.67663100000000    0.00000000000000    0.00000000000000
2
 energy: -6.660072354822 gnorm: 0.050948987788 xtb: 6.2.2 (9d81278992624c895f80dd42a50cac0aa55982e2)
O         0.62388271419548    0.00000000000000    0.00000000000000
N        -0.62388271419548    0.00000000000000    0.00000000000000
2
 energy: -6.660625700906 gnorm: 0.033882546753 xtb: 6.2.2 (9d81278992624c895f80dd42a50cac0aa55982e2)
O         0.60411229816613    0.00000000000000    0.00000000000000
N        -0.60411229816613    0.00000000000000    0.00000000000000
2
 energy: -6.660946562873 gnorm: 0.002797258616 xtb: 6.2.2 (9d81278992624c895f80dd42a50cac0aa55982e2)
O         0.61200528323925    0.00000000000000    0.00000000000000
N        -0.61200528323925    0.00000000000000    0.00000000000000
2
 energy: -6.660948926731 gnorm: 0.000138146245 xtb: 6.2.2 (9d81278992624c895f80dd42a50cac0aa55982e2)
O         0.61140335361424    0.00000000000000    0.00000000000000
N        -0.61140335361424    0.00000000000000    0.00000000000000
