$hessian                                                                        
        0.8299978908  -0.0000033160  -0.0000022106  -0.8299978908   0.0000033160
        0.0000022106
       -0.0000033160   0.0000379845   0.0000000000   0.0000033160  -0.0000379845
       -0.0000000000
       -0.0000022106   0.0000000000   0.0000379846   0.0000022106  -0.0000000000
       -0.0000379846
       -0.8299978908   0.0000033160   0.0000022106   0.8299978908  -0.0000033160
       -0.0000022106
        0.0000033160  -0.0000379845  -0.0000000000  -0.0000033160   0.0000379845
        0.0000000000
        0.0000022106  -0.0000000000  -0.0000379846  -0.0000022106   0.0000000000
        0.0000379846
