[Molden Format]
[Title]
[Atoms] AU
O      1     8  0.11553847827893E+01 -0.60495805761891E-05 -0.40330537174942E-05
N      2     7 -0.11553847827893E+01  0.60495805761891E-05  0.40330537174942E-05
[GTO]
           1 0
 s           4   1.0000000000000000     
   69.137961906196551      -0.20478756370077797     
   11.906129132707308      -0.24997023136827334     
  0.95670827744340703       0.40025880240639616     
  0.36462520496073686       0.15952206667693555     
 p           4   1.0000000000000000     
   8.2124193257781641        1.1321556799186829     
   2.1293576997098116        1.0476840782254817     
  0.75066448202360914       0.54956508217158984     
  0.29885246543283073        8.2908486592766617E-002

           2 0
 s           4   1.0000000000000000     
   63.594024466941008      -0.19234388414721629     
   10.951417231523665      -0.23478107924953728     
  0.87999310257376984       0.37593753901700888     
  0.33538715296521110       0.14982889271862770     
 p           4   1.0000000000000000     
   7.2965040481495080       0.97658666315667420     
   1.8918745450712575       0.90372226730345739     
  0.66694432110824120       0.47404958461536373     
  0.26552202674130870        7.1516067715011844E-002

[MO]
Sym=     1a
Ene=  -0.77164577431896819     
Spin= Alpha
Occup=     2.00000000
           1  0.64875467862748970     
           2 -0.24328857507571516     
           3   1.2663359940196998E-006
           4   8.4422399600562717E-007
           5  0.34362918949579940     
           6  0.27199179855090222     
           7  -1.4240872759158738E-006
           8  -9.4939151729259165E-007
Sym=     2a
Ene=  -0.65888531328700706     
Spin= Alpha
Occup=     2.00000000
           1  0.61965794100985827     
           2  0.51891481225174407     
           3  -2.7397402244016330E-006
           4  -1.8264934839357495E-006
           5 -0.55543951223021637     
           6   7.0127415688394507E-002
           7  -3.7989862704389754E-007
           8  -2.5326575212165785E-007
Sym=     3a
Ene=  -0.59685297310755392     
Spin= Alpha
Occup=     2.00000000
           1   2.1120827688076629E-008
           2   4.5880047924135100E-006
           3  0.52441106694552797     
           4  0.52392530278100202     
           5  -1.9728252585874489E-008
           6   3.3957991607292010E-006
           7  0.38782170329849247     
           8  0.38746246243273613     
Sym=     4a
Ene=  -0.59685297310039231     
Spin= Alpha
Occup=     2.00000000
           1  -4.2139874055675292E-009
           2  -9.1539019655623379E-007
           3 -0.52392530279542893     
           4  0.52441106696800854     
           5   3.9361442604783635E-009
           6  -6.7752354397760936E-007
           7 -0.38746246243392179     
           8  0.38782170330557264     
Sym=     5a
Ene=  -0.54700036909017680     
Spin= Alpha
Occup=     1.00000000
           1  0.25032989825593005     
           2  0.44502423206394331     
           3  -2.3279863197945711E-006
           4  -1.5519908807021688E-006
           5  0.61518071485878056     
           6 -0.62913740507209337     
           7   3.3031739350084614E-006
           8   2.2021159563031555E-006
Sym=     6a
Ene=  -0.37127757588990395     
Spin= Alpha
Occup=     1.00000000
           1   1.3792731735537468E-009
           2   8.6224165118969131E-007
           3  0.49297970792548035     
           4 -0.49265633932225189     
           5   7.3047569258460738E-010
           6  -1.0600645032324528E-006
           7 -0.60629745484223729     
           8  0.60589975579309385     
Sym=     7a
Ene=  -0.37127757587397431     
Spin= Alpha
Occup=     1.00000000
           1   6.8846199683571070E-009
           2   4.3038652857565069E-006
           3  0.49265633932261849     
           4  0.49297970793331908     
           5   3.6461578573845994E-009
           6  -5.2912948587965399E-006
           7 -0.60589975577849220     
           8 -0.60629745483691422     
Sym=     8a
Ene=   0.22994478869895529     
Spin= Alpha
Occup=     0.00000000
           1 -0.65201564554267732     
           2  0.90883433417825554     
           3  -4.7602638308649259E-006
           4  -3.1735092205896842E-006
           5  0.68179519571627489     
           6  0.94896735681806121     
           7  -4.9699556982380771E-006
           8  -3.3133037988351039E-006
