      -----------------------------------------------------------      
     |                   =====================                   |     
     |                           x T B                           |     
     |                   =====================                   |     
     |                         S. Grimme                         |     
     |          Mulliken Center for Theoretical Chemistry        |     
     |                    University of Bonn                     |     
      -----------------------------------------------------------      

   * xtb version 6.2.2 (9d81278992624c895f80dd42a50cac0aa55982e2) compiled by '@Darwin' on 04/03/2020

   xtb is free software: you can redistribute it and/or modify it under
   the terms of the GNU Lesser General Public License as published by
   the Free Software Foundation, either version 3 of the License, or
   (at your option) any later version.
   
   xtb is distributed in the hope that it will be useful,
   but WITHOUT ANY WARRANTY; without even the implied warranty of
   MERCHANTABILITY or FITNESS FOR A PARTICULAR PURPOSE.  See the
   GNU Lesser General Public License for more details.
   
   Cite this work as:
   * S. Grimme, C. Bannwarth, P. Shushkov, J. Chem. Theory Comput., 2017,
     13, 1989-2009. DOI: 10.1021/acs.jctc.7b00118
   * C. Bannwarth, S. Ehlert and S. Grimme., J. Chem. Theory Comput., 2019,
     15, 1652-1671. DOI: 10.1021/acs.jctc.8b01176
   * P. Pracht, E. Caldeweyher, S. Ehlert, S. Grimme, ChemRxiv, 2019, preprint.
     DOI: 10.26434/chemrxiv.8326202.v1
   
   for DFT-D4:
   * E. Caldeweyher, C. Bannwarth and S. Grimme, J. Chem. Phys., 2017,
     147, 034112. DOI: 10.1063/1.4993215
   * E. Caldeweyher, S. Ehlert, A. Hansen, H. Neugebauer, S. Spicher,
     C. Bannwarth and S. Grimme, J. Chem. Phys., 2019, 150, 154122.
     DOI: 10.1063/1.5090222
   
   for sTDA-xTB:
   * S. Grimme and C. Bannwarth, J. Chem. Phys., 2016, 145, 054103.
     DOI: 10.1063/1.4959605
   
   in the mass-spec context:
   * V. Asgeirsson, C. Bauer and S. Grimme, Chem. Sci., 2017, 8, 4879.
     DOI: 10.1039/c7sc00601b
   
   for metadynamics refer to:
   * S. Grimme, J. Chem. Theory Comput., 2019, 155, 2847-2862
     DOI: 10.1021/acs.jctc.9b00143
   
   with help from (in alphabetical order)
   C. Bannwarth, F. Bohle, G. Brandenburg, E. Caldeweyher, M. Checinski,
   S. Dohm, S. Ehlert, S. Ehrlich, F. März, H. Neugebauer, J. Pisarek,
   P. Pracht, P. Shushkov, and S. Spicher.
   
 * started run on 2020/05/12 at 11:45:06.519     

           -------------------------------------------------
          |                Calculation Setup                |
           -------------------------------------------------

          program call               : xtb --input C3N1_9_S_1.input C3N1_9_S_1.xyz --ohess --molden --namespace C3N1_9_S_1 output.out
          calculation namespace      : C3N1_9_S_1
          coordinate file            : C3N1_9_S_1.xyz
          number of atoms            :                     4
          number of electrons        :                    17
          charge                     :                     0
          spin                       :                   0.5
          first test random number   :      0.85317089370893

   ID    Z sym.   atoms
    1    7 N      1
    2    6 C      2-4

           -------------------------------------------------
          |                 G F N 2 - x T B                 |
           -------------------------------------------------

        Reference                      10.1021/acs.jctc.8b01176
      * Hamiltonian:
        H0-scaling (s, p, d)           1.850000    2.230000    2.230000
        zeta-weighting                 0.500000
      * Dispersion:
        s8                             2.700000
        a1                             0.520000
        a2                             5.000000
        s9                             5.000000
      * Repulsion:
        kExp                           1.500000    1.000000
        rExp                           1.000000
      * Coulomb:
        alpha                          2.000000
        third order                    shell-resolved
        anisotropic                    true
        a3                             3.000000
        a5                             4.000000
        cn-shift                       1.200000
        cn-exp                         4.000000
        max-rad                        5.000000


          ...................................................
          :                      SETUP                      :
          :.................................................:
          :  # basis functions                  16          :
          :  # atomic orbitals                  16          :
          :  # shells                            8          :
          :  # electrons                        17          :
          :  max. iterations                   250          :
          :  Hamiltonian                  GFN2-xTB          :
          :  restarted?                      false          :
          :  GBSA solvation                  false          :
          :  PC potential                    false          :
          :  electronic temp.          300.0000000     K    :
          :  accuracy                    1.0000000          :
          :  -> integral cutoff          0.2500000E+02      :
          :  -> integral neglect         0.1000000E-07      :
          :  -> SCF convergence          0.1000000E-05 Eh   :
          :  -> wf. convergence          0.1000000E-03 e    :
          :  Broyden damping             0.4000000          :
          ...................................................

 iter      E             dE          RMSdq      gap      omega  full diag
   1     -8.8931695 -0.889317E+01  0.102E+01    0.00       0.0  T
   2     -8.7733513  0.119818E+00  0.871E+00    1.07       1.0  T
   3     -8.9072202 -0.133869E+00  0.538E+00    0.70       1.0  T
   4     -8.8195401  0.876800E-01  0.539E+00    0.07       1.0  T
   5     -8.9952296 -0.175689E+00  0.101E+00    0.55       1.0  T
   6     -8.9996418 -0.441224E-02  0.406E-01    0.57       1.0  T
   7     -8.9999078 -0.265930E-03  0.991E-02    0.58       1.0  T
   8     -8.9999024  0.540992E-05  0.606E-02    0.59       1.0  T
   9     -8.9999095 -0.711407E-05  0.441E-02    0.59       1.1  T
  10     -8.9999148 -0.528598E-05  0.173E-02    0.59       2.9  T
  11     -8.9999158 -0.108798E-05  0.476E-03    0.59      10.5  T
  12     -8.9999159 -0.887539E-07  0.383E-04    0.59     130.6  T
  13     -8.9999159 -0.121656E-09  0.182E-04    0.59     274.5  T

   *** convergence criteria satisfied after 13 iterations ***

         #    Occupation            Energy/Eh            Energy/eV
      -------------------------------------------------------------
         1        2.0000           -0.7520232             -20.4636
       ...           ...                  ...                  ...
         3        2.0000           -0.6066791             -16.5086
         4        2.0000           -0.5826060             -15.8535
         5        2.0000           -0.5334848             -14.5169
         6        2.0000           -0.5272739             -14.3479
         7        2.0000           -0.4819100             -13.1134
         8        2.0000           -0.4595745             -12.5057
         9        1.0000           -0.4246721             -11.5559 (HOMO)
        10        0.0000           -0.4030504             -10.9676 (LUMO)
        11                         -0.3410236              -9.2797
        12                         -0.2491736              -6.7804
        13                         -0.0381734              -1.0388
        14                          0.0103873               0.2827
       ...                                ...                  ...
        16                          0.2123910               5.7795
      -------------------------------------------------------------
                  HL-Gap            0.0216218 Eh            0.5884 eV
             Fermi-level           -0.4279923 Eh          -11.6463 eV

 SCC (total)                   0 d,  0 h,  0 min,  0.003 sec
 SCC setup                      ...        0 min,  0.000 sec (  2.616%)
 Dispersion                     ...        0 min,  0.000 sec (  0.448%)
 integral evaluation            ...        0 min,  0.001 sec ( 28.627%)
 zeroth order Hamiltonian       ...        0 min,  0.000 sec (  0.505%)
 iterations                     ...        0 min,  0.001 sec ( 37.634%)
 molecular gradient             ...        0 min,  0.001 sec ( 28.322%)
 printout                       ...        0 min,  0.000 sec (  1.585%)

         :::::::::::::::::::::::::::::::::::::::::::::::::::::
         ::                     SUMMARY                     ::
         :::::::::::::::::::::::::::::::::::::::::::::::::::::
         :: total energy              -8.928398194202 Eh    ::
         :: gradient norm              0.176488008295 Eh/a0 ::
         :: HOMO-LUMO gap              0.588359065449 eV    ::
         ::.................................................::
         :: SCC energy                -8.999915933777 Eh    ::
         :: -> isotropic ES           -0.005551709008 Eh    ::
         :: -> anisotropic ES          0.002409926365 Eh    ::
         :: -> anisotropic XC          0.006541505946 Eh    ::
         :: -> dispersion             -0.001720546532 Eh    ::
         :: repulsion energy           0.071517734605 Eh    ::
         :: add. restraining           0.000000000000 Eh    ::
         :::::::::::::::::::::::::::::::::::::::::::::::::::::

      ----------------------------------------------------------- 
     |                   =====================                   |
     |                        A N C O P T                        |
     |                   =====================                   |
     |               Approximate Normal Coordinate               |
     |                Rational Function Optimizer                |
      ----------------------------------------------------------- 

          ...................................................
          :                      SETUP                      :
          :.................................................:
          :   optimization level            normal          :
          :   max. optcycles                   200          :
          :   ANC micro-cycles                  20          :
          :   degrees of freedom                 6          :
          :.................................................:
          :   RF solver                   davidson          :
          :   write xtbopt.log                true          :
          :   linear?                        false          :
          :   energy convergence         0.5000000E-05 Eh   :
          :   grad. convergence          0.1000000E-02 Eh/α :
          :   maximium RF displ.         1.0000000          :
          :   Hlow (freq-cutoff)         0.1000000E-01      :
          :   Hmax (freq-cutoff)         5.0000000          :
          :   S6 in model hess.         20.0000000          :
          ...................................................

generating ANC from model Hessian ...
Using Lindh-Hessian (1995)
 Shifting diagonal of input Hessian by    0.0000000000000000     
 Lowest  eigenvalues of input Hessian
   -0.000000   -0.000000    0.000000    0.000000    0.000000    0.000000
    0.080947    0.644181    0.659804    0.917406    1.279659    1.480118
 Highest eigenvalues
    0.080947    0.644181    0.659804    0.917406    1.279659    1.480118


........................................................................
.............................. CYCLE    1 ..............................
........................................................................
   1     -8.9999159 -0.899992E+01  0.431E-05    0.59       0.0  T
   2     -8.9999159  0.220197E-10  0.697E-05    0.59     717.7  T
   3     -8.9999159 -0.264873E-10  0.173E-05    0.59    2895.9  T
     SCC iter.                  ...        0 min,  0.000 sec
     gradient                   ...        0 min,  0.001 sec
 * total energy  :    -8.9283982 Eh     change        0.1695923E-09 Eh
   gradient norm :     0.1764878 Eh/α   predicted     0.0000000E+00 (-100.00%)
   displ. norm   :     0.4579508 α      lambda       -0.5637565E-01
   maximum displ.:     0.4074321 α      in ANC's #1, #2, #6, ...

........................................................................
.............................. CYCLE    2 ..............................
........................................................................
   1     -9.0401755 -0.904018E+01  0.278E+00    1.47       0.0  T
   2     -9.0217662  0.184093E-01  0.241E+00    1.07       1.0  T
   3     -9.0410033 -0.192371E-01  0.162E+00    1.33       1.0  T
   4     -9.0503462 -0.934281E-02  0.332E-01    1.34       1.0  T
   5     -9.0506334 -0.287289E-03  0.116E-01    1.27       1.0  T
   6     -9.0506382 -0.475430E-05  0.213E-02    1.28       2.3  T
   7     -9.0506398 -0.163094E-05  0.636E-03    1.28       7.9  T
   8     -9.0506396  0.206247E-06  0.647E-03    1.28       7.7  T
   9     -9.0506398 -0.219267E-06  0.148E-03    1.28      33.8  T
  10     -9.0506398 -0.590033E-08  0.177E-04    1.28     281.9  T
  11     -9.0506398  0.188614E-10  0.103E-04    1.28     484.7  T
     SCC iter.                  ...        0 min,  0.001 sec
     gradient                   ...        0 min,  0.001 sec
 * total energy  :    -8.9663222 Eh     change       -0.3792404E-01 Eh
   gradient norm :     0.1088909 Eh/α   predicted    -0.3409936E-01 ( -10.09%)
   displ. norm   :     0.2828228 α      lambda       -0.2872150E-01
   maximum displ.:     0.2642426 α      in ANC's #2, #6, #5, ...

........................................................................
.............................. CYCLE    3 ..............................
........................................................................
   1     -9.0916283 -0.909163E+01  0.266E+00    1.29       0.0  T
   2     -9.0858069  0.582137E-02  0.197E+00    0.59       1.0  T
   3     -9.0979429 -0.121360E-01  0.130E+00    0.95       1.0  T
   4     -9.1031496 -0.520668E-02  0.393E-01    0.93       1.0  T
   5     -9.1032975 -0.147846E-03  0.725E-02    0.87       1.0  T
   6     -9.1032999 -0.239637E-05  0.161E-02    0.87       3.1  T
   7     -9.1032995  0.349184E-06  0.127E-02    0.87       3.9  T
   8     -9.1033002 -0.695974E-06  0.542E-03    0.87       9.2  T
   9     -9.1033003 -0.671079E-07  0.474E-04    0.87     105.5  T
  10     -9.1033003 -0.739092E-09  0.112E-04    0.87     447.1  T
     SCC iter.                  ...        0 min,  0.001 sec
     gradient                   ...        0 min,  0.001 sec
 * total energy  :    -8.9756317 Eh     change       -0.9309476E-02 Eh
   gradient norm :     0.0654224 Eh/α   predicted    -0.1550945E-01 (  66.60%)
   displ. norm   :     0.1362214 α      lambda       -0.6529269E-02
   maximum displ.:     0.1227721 α      in ANC's #1, #2, #6, ...

........................................................................
.............................. CYCLE    4 ..............................
........................................................................
   1     -9.0845676 -0.908457E+01  0.124E+00    1.13       0.0  T
   2     -9.0849160 -0.348458E-03  0.639E-01    1.37       1.0  T
   3     -9.0840195  0.896560E-03  0.572E-01    1.22       1.0  T
   4     -9.0853914 -0.137188E-02  0.215E-01    1.28       1.0  T
   5     -9.0854786 -0.872900E-04  0.364E-02    1.30       1.4  T
   6     -9.0854790 -0.345468E-06  0.119E-02    1.30       4.2  T
   7     -9.0854789  0.460629E-07  0.605E-03    1.30       8.3  T
   8     -9.0854791 -0.114376E-06  0.329E-03    1.30      15.2  T
   9     -9.0854791 -0.319280E-07  0.113E-03    1.30      44.4  T
  10     -9.0854791 -0.259185E-08  0.121E-04    1.30     413.2  T
  11     -9.0854791 -0.271552E-10  0.313E-05    1.30    1596.7  T
     SCC iter.                  ...        0 min,  0.001 sec
     gradient                   ...        0 min,  0.001 sec
 * total energy  :    -8.9786949 Eh     change       -0.3063228E-02 Eh
   gradient norm :     0.0139075 Eh/α   predicted    -0.3325212E-02 (   8.55%)
   displ. norm   :     0.0414341 α      lambda       -0.3076929E-03
   maximum displ.:     0.0370514 α      in ANC's #1, #2, #6, ...

........................................................................
.............................. CYCLE    5 ..............................
........................................................................
   1     -9.0864688 -0.908647E+01  0.332E-01    1.36       0.0  T
   2     -9.0864435  0.252190E-04  0.189E-01    1.35       1.0  T
   3     -9.0864119  0.316484E-04  0.179E-01    1.38       1.0  T
   4     -9.0865285 -0.116605E-03  0.180E-02    1.36       2.8  T
   5     -9.0865288 -0.330697E-06  0.744E-03    1.37       6.7  T
   6     -9.0865288 -0.245525E-07  0.281E-03    1.37      17.8  T
   7     -9.0865288  0.226788E-07  0.218E-03    1.37      22.9  T
   8     -9.0865289 -0.262113E-07  0.354E-04    1.37     141.1  T
   9     -9.0865289 -0.131054E-09  0.891E-05    1.37     561.4  T
     SCC iter.                  ...        0 min,  0.001 sec
     gradient                   ...        0 min,  0.001 sec
 * total energy  :    -8.9789332 Eh     change       -0.2382781E-03 Eh
   gradient norm :     0.0087410 Eh/α   predicted    -0.1541115E-03 ( -35.32%)
   displ. norm   :     0.0613664 α      lambda       -0.2690084E-03
   maximum displ.:     0.0570292 α      in ANC's #1, #6, #2, ...

........................................................................
.............................. CYCLE    6 ..............................
........................................................................
   1     -9.0870414 -0.908704E+01  0.540E-01    1.46       0.0  T
   2     -9.0870551 -0.137028E-04  0.281E-01    1.47       1.0  T
   3     -9.0869004  0.154719E-03  0.237E-01    1.49       1.0  T
   4     -9.0871229 -0.222578E-03  0.426E-02    1.47       1.2  T
   5     -9.0871270 -0.400252E-05  0.152E-02    1.48       3.3  T
   6     -9.0871270 -0.605416E-07  0.462E-03    1.48      10.8  T
   7     -9.0871269  0.114307E-06  0.478E-03    1.48      10.5  T
   8     -9.0871270 -0.128147E-06  0.484E-04    1.48     103.3  T
   9     -9.0871270 -0.106645E-09  0.192E-04    1.48     260.8  T
     SCC iter.                  ...        0 min,  0.001 sec
     gradient                   ...        0 min,  0.001 sec
 * total energy  :    -8.9791119 Eh     change       -0.1786639E-03 Eh
   gradient norm :     0.0034952 Eh/α   predicted    -0.1350099E-03 ( -24.43%)
   displ. norm   :     0.0407865 α      lambda       -0.7103408E-04
   maximum displ.:     0.0384641 α      in ANC's #1, #6, #2, ...

........................................................................
.............................. CYCLE    7 ..............................
........................................................................
   1     -9.0870555 -0.908706E+01  0.373E-01    1.53       0.0  T
   2     -9.0870714 -0.158924E-04  0.188E-01    1.55       1.0  T
   3     -9.0870446  0.267885E-04  0.972E-02    1.55       1.0  T
   4     -9.0870767 -0.321295E-04  0.309E-02    1.54       1.6  T
   5     -9.0870796 -0.285710E-05  0.105E-02    1.55       4.8  T
   6     -9.0870796 -0.412206E-07  0.306E-03    1.54      16.3  T
   7     -9.0870795  0.585441E-07  0.349E-03    1.54      14.3  T
   8     -9.0870796 -0.672139E-07  0.238E-04    1.54     210.2  T
   9     -9.0870796 -0.130616E-10  0.127E-04    1.54     393.4  T
     SCC iter.                  ...        0 min,  0.001 sec
     gradient                   ...        0 min,  0.001 sec
 * total energy  :    -8.9791599 Eh     change       -0.4800325E-04 Eh
   gradient norm :     0.0018641 Eh/α   predicted    -0.3557690E-04 ( -25.89%)
   displ. norm   :     0.0427036 α      lambda       -0.2166656E-04
   maximum displ.:     0.0394867 α      in ANC's #1, #6, #2, ...

........................................................................
.............................. CYCLE    8 ..............................
........................................................................
   1     -9.0872253 -0.908723E+01  0.384E-01    1.58       0.0  T
   2     -9.0872382 -0.129446E-04  0.198E-01    1.59       1.0  T
   3     -9.0872277  0.105074E-04  0.635E-02    1.59       1.0  T
   4     -9.0872408 -0.131030E-04  0.253E-02    1.59       2.0  T
   5     -9.0872422 -0.143030E-05  0.990E-03    1.59       5.0  T
   6     -9.0872424 -0.139570E-06  0.309E-03    1.59      16.2  T
   7     -9.0872423  0.573818E-07  0.353E-03    1.59      14.1  T
   8     -9.0872424 -0.681377E-07  0.182E-04    1.59     274.5  T
   9     -9.0872424 -0.493117E-11  0.986E-05    1.59     507.1  T
     SCC iter.                  ...        0 min,  0.001 sec
     gradient                   ...        0 min,  0.001 sec
 * total energy  :    -8.9791772 Eh     change       -0.1734956E-04 Eh
   gradient norm :     0.0017412 Eh/α   predicted    -0.1084219E-04 ( -37.51%)
   displ. norm   :     0.0117503 α      lambda       -0.4827259E-05
   maximum displ.:     0.0095264 α      in ANC's #1, #2, #6, ...

........................................................................
.............................. CYCLE    9 ..............................
........................................................................
   1     -9.0874695 -0.908747E+01  0.105E-01    1.59       0.0  T
   2     -9.0874702 -0.738301E-06  0.552E-02    1.59       1.0  T
   3     -9.0874652  0.501573E-05  0.361E-02    1.60       1.4  T
   4     -9.0874713 -0.607558E-05  0.577E-03    1.59       8.7  T
   5     -9.0874713 -0.164932E-07  0.259E-03    1.59      19.3  T
   6     -9.0874713 -0.437229E-08  0.837E-04    1.59      59.7  T
   7     -9.0874713  0.433788E-08  0.952E-04    1.59      52.5  T
     SCC iter.                  ...        0 min,  0.001 sec
     gradient                   ...        0 min,  0.001 sec
 * total energy  :    -8.9791819 Eh     change       -0.4697077E-05 Eh
   gradient norm :     0.0006355 Eh/α   predicted    -0.2413557E-05 ( -48.62%)
   displ. norm   :     0.0166036 α      lambda       -0.1975137E-05
   maximum displ.:     0.0151128 α      in ANC's #1, #2, #6, ...

   *** GEOMETRY OPTIMIZATION CONVERGED AFTER 9 ITERATIONS ***

------------------------------------------------------------------------
 total energy gain   :        -0.0507837 Eh      -31.8673 kcal/mol
 total RMSD          :         0.4439759 a0        0.2349 Å
 total power (kW/mol):       -14.8147412 (step)-5429.0711 (real)
------------------------------------------------------------------------

 ANCopt (total)                0 d,  0 h,  0 min,  0.025 sec
 optimizer setup                ...        0 min,  0.000 sec (  0.269%)
 model hessian                  ...        0 min,  0.000 sec (  0.284%)
 ANC generation                 ...        0 min,  0.000 sec (  0.175%)
 coordinate transformation      ...        0 min,  0.000 sec (  0.082%)
 single point calculation       ...        0 min,  0.024 sec ( 96.368%)
 optimization log               ...        0 min,  0.000 sec (  0.743%)
 hessian update                 ...        0 min,  0.000 sec (  0.087%)
 rational function              ...        0 min,  0.000 sec (  0.832%)

================
 final structure:
================
4
 xtb: 6.2.2 (9d81278992624c895f80dd42a50cac0aa55982e2)
N        -1.14257179846387   -0.04603651491333    0.04334652675902
C        -0.05438193299496    0.75635471740074    0.08065301305179
C         1.19572348932733    0.04928461551309   -0.05675839985027
C         0.00123024213150   -0.75960281800050   -0.06724213996054

 Bond Distances (Angstroems)
 ---------------------------
N1-C2=1.3525         N1-C4=1.3527         C2-N1=1.3525         C2-C3=1.4428         C2-C4=1.5242         C3-C2=1.4428         
C3-C4=1.4426         C4-N1=1.3527         C4-C2=1.5242         C4-C3=1.4426         
 C  C  Rav=1.4699 sigma=0.0384  Rmin=1.4426  Rmax=1.5242     3
 N  C  Rav=1.3526 sigma=0.0001  Rmin=1.3525  Rmax=1.3527     2

 selected bond angles (degree)
 --------------------
C4-N1-C2= 68.59                C3-C2-N1=113.81                C4-C2-N1= 55.71                C4-C2-C3= 58.11                
C4-C3-C2= 63.77                C2-C4-N1= 55.70                C3-C4-N1=113.81                C3-C4-C2= 58.12                

 selected dihedral angles (degree)
 ---------------------------------
C3-C2-N1-C4=  1.02            C4-C3-C2-N1=359.01            C3-C4-N1-C2=358.98            N1-C4-C2-C3=181.10            
C3-C4-C2-N1=178.90            N1-C4-C3-C2=  0.99            
           -------------------------------------------------
          |                Final Singlepoint                |
           -------------------------------------------------

          ...................................................
          :                      SETUP                      :
          :.................................................:
          :  # basis functions                  16          :
          :  # atomic orbitals                  16          :
          :  # shells                            8          :
          :  # electrons                        17          :
          :  max. iterations                   250          :
          :  Hamiltonian                  GFN2-xTB          :
          :  restarted?                      false          :
          :  GBSA solvation                  false          :
          :  PC potential                    false          :
          :  electronic temp.          300.0000000     K    :
          :  accuracy                    1.0000000          :
          :  -> integral cutoff          0.2500000E+02      :
          :  -> integral neglect         0.1000000E-07      :
          :  -> SCF convergence          0.1000000E-05 Eh   :
          :  -> wf. convergence          0.1000000E-03 e    :
          :  Broyden damping             0.4000000          :
          ...................................................

 iter      E             dE          RMSdq      gap      omega  full diag
   1     -9.0874713 -0.908747E+01  0.322E-04    1.59       0.0  T
   2     -9.0874713 -0.366462E-11  0.185E-04    1.59     270.7  T
   3     -9.0874713  0.208189E-11  0.351E-05    1.59    1423.3  T

   *** convergence criteria satisfied after 3 iterations ***

         #    Occupation            Energy/Eh            Energy/eV
      -------------------------------------------------------------
         1        2.0000           -0.7703713             -20.9629
       ...           ...                  ...                  ...
         3        2.0000           -0.6314441             -17.1825
         4        2.0000           -0.5949087             -16.1883
         5        2.0000           -0.5568634             -15.1530
         6        2.0000           -0.5211559             -14.1814
         7        2.0000           -0.4764483             -12.9648
         8        1.9998           -0.4417463             -12.0205
         9        1.0002           -0.4252852             -11.5726 (HOMO)
        10                         -0.3668548              -9.9826 (LUMO)
        11                         -0.3106311              -8.4527
        12                         -0.2557680              -6.9598
        13                          0.1061669               2.8889
        14                          0.1880950               5.1183
       ...                                ...                  ...
        16                          0.2969809               8.0813
      -------------------------------------------------------------
                  HL-Gap            0.0584304 Eh            1.5900 eV
             Fermi-level           -0.4147929 Eh          -11.2871 eV

 SCC (total)                   0 d,  0 h,  0 min,  0.003 sec
 SCC setup                      ...        0 min,  0.000 sec (  1.903%)
 Dispersion                     ...        0 min,  0.000 sec (  0.431%)
 integral evaluation            ...        0 min,  0.001 sec ( 37.030%)
 zeroth order Hamiltonian       ...        0 min,  0.000 sec (  0.544%)
 iterations                     ...        0 min,  0.001 sec ( 19.828%)
 molecular gradient             ...        0 min,  0.001 sec ( 38.033%)
 printout                       ...        0 min,  0.000 sec (  1.884%)

         :::::::::::::::::::::::::::::::::::::::::::::::::::::
         ::                     SUMMARY                     ::
         :::::::::::::::::::::::::::::::::::::::::::::::::::::
         :: total energy              -8.979181931653 Eh    ::
         :: gradient norm              0.000639820064 Eh/a0 ::
         :: HOMO-LUMO gap              1.589973471489 eV    ::
         ::.................................................::
         :: SCC energy                -9.087471276395 Eh    ::
         :: -> isotropic ES           -0.001840365433 Eh    ::
         :: -> anisotropic ES          0.005342123840 Eh    ::
         :: -> anisotropic XC          0.009011854052 Eh    ::
         :: -> dispersion             -0.001725017388 Eh    ::
         :: repulsion energy           0.108289341763 Eh    ::
         :: add. restraining           0.000000000000 Eh    ::
         :::::::::::::::::::::::::::::::::::::::::::::::::::::

           ------------------------------------------------- 
          |                Numerical Hessian                |
           ------------------------------------------------- 
step length          :   0.00500
SCC accuracy         :   0.30000
Hessian scale factor :   1.00000
frozen atoms in %    :   0.00000    0
RMS gradient         :   0.00064
estimated CPU  time      0.00 min
estimated wall time      0.00 min

writing file <hessian>.

 projected vibrational frequencies (cm-1)
eigval :       -0.00    -0.00    -0.00    -0.00     0.00     0.00
eigval :     -257.41   122.38   474.62   931.34  1321.92  1492.92
           -------------------------------------------------
          |                Property Printout                |
           -------------------------------------------------

    * Orbital Energies and Occupations

         #    Occupation            Energy/Eh            Energy/eV
      -------------------------------------------------------------
         1        2.0000           -0.7703714             -20.9629
         2        2.0000           -0.6845483             -18.6275
         3        2.0000           -0.6314442             -17.1825
         4        2.0000           -0.5949088             -16.1883
         5        2.0000           -0.5568634             -15.1530
         6        2.0000           -0.5211559             -14.1814
         7        2.0000           -0.4764484             -12.9648
         8        1.9998           -0.4417460             -12.0205
         9        1.0002           -0.4252851             -11.5726 (HOMO)
        10                         -0.3668549              -9.9826 (LUMO)
        11                         -0.3106311              -8.4527
        12                         -0.2557679              -6.9598
        13                          0.1061670               2.8890
        14                          0.1880949               5.1183
        15                          0.2021728               5.5014
        16                          0.2969810               8.0813
      -------------------------------------------------------------
                  HL-Gap            0.0584302 Eh            1.5900 eV
             Fermi-level           -0.4147928 Eh          -11.2871 eV

     #   Z        covCN         q      C6AA      α(0)
     1   7 N      1.834    -0.111    24.191     7.289
     2   6 C      2.864     0.113    25.508     8.279
     3   6 C      1.973    -0.115    34.248     9.451
     4   6 C      2.864     0.113    25.508     8.279

 Mol. C6AA /au·bohr⁶  :        434.965244
 Mol. C8AA /au·bohr⁸  :      11841.602414
 Mol. α(0) /au        :         33.296750


Wiberg/Mayer (AO) data.
largest (>0.10) Wiberg bond orders for each atom
          total WBO             WBO to atom ...
     1  N   2.543        C    2 1.212    C    4 1.212    C    3 0.119
     2  C   3.290        N    1 1.212    C    3 1.086    C    4 0.992
     3  C   2.292        C    4 1.087    C    2 1.086    N    1 0.119
     4  C   3.290        N    1 1.212    C    3 1.087    C    2 0.992

MOs/occ written to file <molden.input>


molecular dipole:
                 x           y           z       tot (Debye)
 q only:       -0.030      -0.002       0.006
   full:       -0.316      -0.016       0.042       0.812
molecular quadrupole (traceless):
                xx          xy          yy          xz          yz          zz
 q only:       -1.334      -0.093       1.011       0.068       0.071       0.323
  q+dip:       -3.506      -0.202       1.279       0.278      -0.082       2.227
Molecule has the following symmetry elements: (C2) 2*(sigma) 
It seems to be the C2v point group
   full:       -5.429      -0.279       0.943       0.479      -0.330       4.486

           -------------------------------------------------
          |                Geometry Summary                 |
           -------------------------------------------------

      molecular mass/u    :       50.0389109
   center of mass at/Å    :       -0.0455753      -0.0018361       0.0017289
  moments of inertia/u·Å² :        0.1395259E+02   0.3549547E+02   0.4944493E+02
rotational constants/cm⁻¹ :        0.1208208E+01   0.4749235E+00   0.3409375E+00

 * 2 selected distances

     #   Z        #   Z                                     value/Å
     1   7 N      2   6 C                                 1.3525460 (min)
     1   7 N      4   6 C                                 1.3526603 (max)

 * 1 distinct bonds (by element types)

   Z      Z             #   av. dist./Å        max./Å        min./Å
   6 C    7 N           2     1.3526031     1.3526603     1.3525460

           -------------------------------------------------
          |               Frequency Printout                |
           -------------------------------------------------
 projected vibrational frequencies (cm-1)
eigval :       -0.00    -0.00    -0.00    -0.00     0.00     0.00
eigval :     -257.41   122.38   474.62   931.34  1321.92  1492.92
 reduced masses (amu)
   1: 12.35   2: 12.18   3: 12.81   4: 12.68   5: 12.87   6: 12.49   7: 12.19   8: 12.50
   9: 12.59  10: 12.56  11: 12.09  12: 12.82
 IR intensities (amu)
   1:  0.02   2:  0.02   3:  0.09   4:  0.09   5:  0.03   6:  0.07   7:  0.10   8:  1.35
   9:  1.53  10:  0.15  11:  0.29  12:  0.55
 Raman intensities (amu)
   1:  0.00   2:  0.00   3:  0.00   4:  0.00   5:  0.00   6:  0.00   7:  0.00   8:  0.00
   9:  0.00  10:  0.00  11:  0.00  12:  0.00
 output can be read by thermo (or use thermo option).
 writing <g98.out> molden fake output.
 recommended (thermochemical) frequency scaling factor: 1.0
           -------------------------------------------------
          |             Thermodynamic Functions             |
           -------------------------------------------------

c2v symmetry found (for desy threshold:  0.10E+00) used in thermo

          ...................................................
          :                      SETUP                      :
          :.................................................:
          :  # frequencies                           5      :
          :  # imaginary freq.                       1      :
          :  linear?                             false      :
          :  only rotor calc.                    false      :
          :  symmetry                              c2v      :
          :  rotational number                       2      :
          :  scaling factor                  1.0000000      :
          :  rotor cutoff                   50.0000000 cm⁻¹ :
          :  imag. cutoff                  -20.0000000 cm⁻¹ :
          :.................................................:

    mode    ω/cm⁻¹     T·S(HO)/kcal·mol⁻¹    T·S(FR)/kcal·mol⁻¹   T·S(vib)
   ------------------------------------------------------------------------
       1    122.38    -0.00000 ( 97.29%)     0.00723 (  2.71%)     0.00020
   ------------------------------------------------------------------------

   temp. (K)  partition function   enthalpy   heat capacity  entropy
                                   cal/mol     cal/K/mol   cal/K/mol   J/K/mol
 298.15  VIB   2.53                  627.195      3.910      3.936
         ROT  0.598E+04              888.752      2.981     20.261
         INT  0.151E+05             1515.948      6.891     24.198
         TR   0.342E+27             1481.254      4.968     37.637
         TOT                        2997.2017    11.8590    61.8350   258.7177

   temp. (K)  partition function   enthalpy   heat capacity  entropy
                                   cal/mol     cal/K/mol   cal/K/mol   J/K/mol
 120.00  VIB   1.30                  109.477      1.888      1.449
         ROT  0.153E+04              357.707      2.981     17.549
         INT  0.199E+04              467.183      4.869     18.998
         TR   0.874E+26              596.178      4.968     33.118
         TOT                        1063.3615     9.8375    52.1158   218.0523

   temp. (K)  partition function   enthalpy   heat capacity  entropy
                                   cal/mol     cal/K/mol   cal/K/mol   J/K/mol
 100.00  VIB   1.21                   74.115      1.646      1.131
         ROT  0.116E+04              298.089      2.981     17.005
         INT  0.140E+04              372.204      4.627     18.136
         TR   0.665E+26              496.815      4.968     32.212
         TOT                         869.0192     9.5947    50.3482   210.6570

   temp. (K)  partition function   enthalpy   heat capacity  entropy
                                   cal/mol     cal/K/mol   cal/K/mol   J/K/mol
  80.00  VIB   1.12                   43.821      1.376      0.797
         ROT   831.                  238.471      2.981     16.340
         INT   934.                  282.292      4.357     17.136
         TR   0.476E+26              397.452      4.968     31.104
         TOT                         679.7442     9.3249    48.2409   201.8398

   temp. (K)  partition function   enthalpy   heat capacity  entropy
                                   cal/mol     cal/K/mol   cal/K/mol   J/K/mol
  60.00  VIB   1.06                   19.657      1.018      0.453
         ROT   540.                  178.853      2.981     15.482
         INT   570.                  198.510      3.998     15.935
         TR   0.309E+26              298.089      4.968     29.676
         TOT                         496.5994     8.9666    45.6111   190.8369

   temp. (K)  partition function   enthalpy   heat capacity  entropy
                                   cal/mol     cal/K/mol   cal/K/mol   J/K/mol
  40.00  VIB   1.01                    4.341      0.484      0.147
         ROT   294.                  119.236      2.981     14.274
         INT   297.                  123.576      3.465     14.421
         TR   0.168E+26              198.726      4.968     27.662
         TOT                         322.3023     8.4327    42.0831   176.0758

   temp. (K)  partition function   enthalpy   heat capacity  entropy
                                   cal/mol     cal/K/mol   cal/K/mol   J/K/mol
  20.00  VIB   1.00                    0.053      0.023      0.002
         ROT   104.                   59.618      2.981     12.208
         INT   104.                   59.670      3.004     12.209
         TR   0.595E+25               99.363      4.968     24.220
         TOT                         159.0333     7.9722    36.4296   152.4216

   temp. (K)  partition function   enthalpy   heat capacity  entropy
                                   cal/mol     cal/K/mol   cal/K/mol   J/K/mol
  10.00  VIB   1.00                    0.000      0.000     -0.020
         ROT   36.7                   29.809      2.981     10.141
         INT   36.7                   29.809      2.981     10.121
         TR   0.210E+25               49.681      4.968     20.778
         TOT                          79.4904     7.9491    30.8999   129.2850

       T/K    H(0)-H(T)+PV         H(T)/Eh          T*S/Eh         G(T)/Eh
   ------------------------------------------------------------------------
    298.15    0.477634E-02    0.146708E-01    0.293798E-01   -0.147090E-01
    120.00    0.169457E-02    0.115891E-01    0.996621E-02    0.162286E-02
    100.00    0.138487E-02    0.112794E-01    0.802350E-02    0.325586E-02
     80.00    0.108324E-02    0.109777E-01    0.615014E-02    0.482760E-02
     60.00    0.791382E-03    0.106859E-01    0.436116E-02    0.632472E-02
     40.00    0.513621E-03    0.104081E-01    0.268255E-02    0.772557E-02
     20.00    0.253436E-03    0.101479E-01    0.116109E-02    0.898684E-02
     10.00    0.126676E-03    0.100212E-01    0.492420E-03    0.952875E-02 (used)
   ------------------------------------------------------------------------

         :::::::::::::::::::::::::::::::::::::::::::::::::::::
         ::                  THERMODYNAMIC                  ::
         :::::::::::::::::::::::::::::::::::::::::::::::::::::
         :: total free energy          -8.969653182720 Eh   ::
         ::.................................................::
         :: total energy               -8.979181931809 Eh   ::
         :: zero point energy           0.009894493533 Eh   ::
         :: G(RRHO) w/o ZPVE           -0.000365744443 Eh   ::
         :: G(RRHO) contrib.            0.009528749090 Eh   ::
         :::::::::::::::::::::::::::::::::::::::::::::::::::::
imag cut-off (cm-1) :    5.00
 found            1  significant imaginary frequency
 writing imag mode distorted coords to xtbhess.xyz
 for further optimization.

optimized geometry written to: xtbopt.xyz


           -------------------------------------------------
          | TOTAL ENERGY               -8.979181931809 Eh   |
          | TOTAL ENTHALPY             -8.969160762248 Eh   |
          | TOTAL FREE ENERGY          -8.969653182720 Eh   |
          | GRADIENT NORM               0.000639920142 Eh/α |
          | HOMO-LUMO GAP               1.589967403892 eV   |
           -------------------------------------------------

------------------------------------------------------------------------
 * finished run on 2020/05/12 at 11:45:06.629     
------------------------------------------------------------------------
 total:
 * wall-time:     0 d,  0 h,  0 min,  0.109 sec
 *  cpu-time:     0 d,  0 h,  0 min,  0.109 sec
 * ratio c/w:     0.999 speedup
 SCF:
 * wall-time:     0 d,  0 h,  0 min,  0.003 sec
 *  cpu-time:     0 d,  0 h,  0 min,  0.003 sec
 * ratio c/w:     1.000 speedup
 ANC optimizer:
 * wall-time:     0 d,  0 h,  0 min,  0.028 sec
 *  cpu-time:     0 d,  0 h,  0 min,  0.028 sec
 * ratio c/w:     0.998 speedup
 numerical hessian:
 * wall-time:     0 d,  0 h,  0 min,  0.060 sec
 *  cpu-time:     0 d,  0 h,  0 min,  0.060 sec
 * ratio c/w:     0.999 speedup

