 Entering Gaussian System, Link 0=g16
 Initial command:
 /applis/site/cecic/gaussian16/B.01/nehalem/g16/l1.exe "/bettik/tinaccil/g16/12192504_CN_2/Gau-178755.inp" -scrdir="/bettik/tinaccil/g16/12192504_CN_2/"
 Entering Link 1 = /applis/site/cecic/gaussian16/B.01/nehalem/g16/l1.exe PID=    178764.
  
 Copyright (c) 1988-2017, Gaussian, Inc.  All Rights Reserved.
  
 This is part of the Gaussian(R) 16 program.  It is based on
 the Gaussian(R) 09 system (copyright 2009, Gaussian, Inc.),
 the Gaussian(R) 03 system (copyright 2003, Gaussian, Inc.),
 the Gaussian(R) 98 system (copyright 1998, Gaussian, Inc.),
 the Gaussian(R) 94 system (copyright 1995, Gaussian, Inc.),
 the Gaussian 92(TM) system (copyright 1992, Gaussian, Inc.),
 the Gaussian 90(TM) system (copyright 1990, Gaussian, Inc.),
 the Gaussian 88(TM) system (copyright 1988, Gaussian, Inc.),
 the Gaussian 86(TM) system (copyright 1986, Carnegie Mellon
 University), and the Gaussian 82(TM) system (copyright 1983,
 Carnegie Mellon University). Gaussian is a federally registered
 trademark of Gaussian, Inc.
  
 This software contains proprietary and confidential information,
 including trade secrets, belonging to Gaussian, Inc.
  
 This software is provided under written license and may be
 used, copied, transmitted, or stored only in accord with that
 written license.
  
 The following legend is applicable only to US Government
 contracts under FAR:
  
                    RESTRICTED RIGHTS LEGEND
  
 Use, reproduction and disclosure by the US Government is
 subject to restrictions as set forth in subparagraphs (a)
 and (c) of the Commercial Computer Software - Restricted
 Rights clause in FAR 52.227-19.
  
 Gaussian, Inc.
 340 Quinnipiac St., Bldg. 40, Wallingford CT 06492
  
  
 ---------------------------------------------------------------
 Warning -- This program may not be used in any manner that
 competes with the business of Gaussian, Inc. or will provide
 assistance to any competitor of Gaussian, Inc.  The licensee
 of this program is prohibited from giving any competitor of
 Gaussian, Inc. access to this program.  By using this program,
 the user acknowledges that Gaussian, Inc. is engaged in the
 business of creating and licensing software in the field of
 computational chemistry and represents and warrants to the
 licensee that it is not a competitor of Gaussian, Inc. and that
 it will not use this program in any manner prohibited above.
 ---------------------------------------------------------------
  

 Cite this work as:
 Gaussian 16, Revision B.01,
 M. J. Frisch, G. W. Trucks, H. B. Schlegel, G. E. Scuseria, 
 M. A. Robb, J. R. Cheeseman, G. Scalmani, V. Barone, 
 G. A. Petersson, H. Nakatsuji, X. Li, M. Caricato, A. V. Marenich, 
 J. Bloino, B. G. Janesko, R. Gomperts, B. Mennucci, H. P. Hratchian, 
 J. V. Ortiz, A. F. Izmaylov, J. L. Sonnenberg, D. Williams-Young, 
 F. Ding, F. Lipparini, F. Egidi, J. Goings, B. Peng, A. Petrone, 
 T. Henderson, D. Ranasinghe, V. G. Zakrzewski, J. Gao, N. Rega, 
 G. Zheng, W. Liang, M. Hada, M. Ehara, K. Toyota, R. Fukuda, 
 J. Hasegawa, M. Ishida, T. Nakajima, Y. Honda, O. Kitao, H. Nakai, 
 T. Vreven, K. Throssell, J. A. Montgomery, Jr., J. E. Peralta, 
 F. Ogliaro, M. J. Bearpark, J. J. Heyd, E. N. Brothers, K. N. Kudin, 
 V. N. Staroverov, T. A. Keith, R. Kobayashi, J. Normand, 
 K. Raghavachari, A. P. Rendell, J. C. Burant, S. S. Iyengar, 
 J. Tomasi, M. Cossi, J. M. Millam, M. Klene, C. Adamo, R. Cammi, 
 J. W. Ochterski, R. L. Martin, K. Morokuma, O. Farkas, 
 J. B. Foresman, and D. J. Fox, Gaussian, Inc., Wallingford CT, 2016.
 
 ******************************************
 Gaussian 16:  ES64L-G16RevB.01 20-Dec-2017
                25-Sep-2020 
 ******************************************
 %nosave
 %nproc=8
 Will use up to    8 processors via shared memory.
 %mem=2gb
 %chk=input
 --------------------------------------------------------
 #P M062X/cc-pvtz nosymm opt(noeigentest) optcyc=120 freq
 --------------------------------------------------------
 1/6=120,11=1,18=20,19=15,26=3,38=1/1,3;
 2/9=110,12=2,15=1,17=6,18=5,40=1/2;
 3/5=16,6=1,11=2,25=1,30=1,71=1,74=-55/1,2,3;
 4//1;
 5/5=2,38=5/2;
 6/7=2,8=2,9=2,10=2,28=1/1;
 7/30=1/1,2,3,16;
 1/6=120,11=1,18=20,19=15,26=3/3(2);
 2/9=110,15=1/2;
 99//99;
 2/9=110,15=1/2;
 3/5=16,6=1,11=2,25=1,30=1,71=1,74=-55/1,2,3;
 4/5=5,16=3,69=1/1;
 5/5=2,38=5/2;
 7/30=1/1,2,3,16;
 1/6=120,11=1,18=20,19=15,26=3/3(-5);
 2/9=110,15=1/2;
 6/7=2,8=2,9=2,10=2,19=2,28=1/1;
 99/9=1/99;
 Leave Link    1 at Fri Sep 25 11:32:16 2020, MaxMem=   268435456 cpu:               0.7 elap:               0.1
 (Enter /applis/site/cecic/gaussian16/B.01/nehalem/g16/l101.exe)
 -----
 Title
 -----
 Symbolic Z-matrix:
 Charge =  0 Multiplicity = 2
 N
 C                    1    B1
       Variables:
  B1                    1.15711                  
 
 ITRead=  0  0
 MicOpt= -1 -1
 NAtoms=      2 NQM=        2 NQMF=       0 NMMI=      0 NMMIF=      0
                NMic=       0 NMicF=      0.
                    Isotopes and Nuclear Properties:
 (Nuclear quadrupole moments (NQMom) in fm**2, nuclear magnetic moments (NMagM)
  in nuclear magnetons)

  Atom         1           2
 IAtWgt=          14          12
 AtmWgt=  14.0030740  12.0000000
 NucSpn=           2           0
 AtZEff=  -0.0000000  -0.0000000
 NQMom=    2.0440000   0.0000000
 NMagM=    0.4037610   0.0000000
 AtZNuc=   7.0000000   6.0000000
 Leave Link  101 at Fri Sep 25 11:32:16 2020, MaxMem=   268435456 cpu:               2.1 elap:               0.3
 (Enter /applis/site/cecic/gaussian16/B.01/nehalem/g16/l103.exe)

 GradGradGradGradGradGradGradGradGradGradGradGradGradGradGradGradGradGrad
 Berny optimization.
 Initialization pass.
                           ----------------------------
                           !    Initial Parameters    !
                           ! (Angstroms and Degrees)  !
 --------------------------                            --------------------------
 ! Name  Definition              Value          Derivative Info.                !
 --------------------------------------------------------------------------------
 ! R1    R(1,2)                  1.1571         estimate D2E/DX2                !
 --------------------------------------------------------------------------------
 Trust Radius=3.00D-01 FncErr=1.00D-07 GrdErr=1.00D-06 EigMax=2.50D+02 EigMin=1.00D-04
 Number of steps in this run=    100 maximum allowed number of steps=    100.
 GradGradGradGradGradGradGradGradGradGradGradGradGradGradGradGradGradGrad

 Leave Link  103 at Fri Sep 25 11:32:16 2020, MaxMem=   268435456 cpu:               0.2 elap:               0.1
 (Enter /applis/site/cecic/gaussian16/B.01/nehalem/g16/l202.exe)
                          Input orientation:                          
 ---------------------------------------------------------------------
 Center     Atomic      Atomic             Coordinates (Angstroms)
 Number     Number       Type             X           Y           Z
 ---------------------------------------------------------------------
      1          7           0        0.000000    0.000000    0.000000
      2          6           0        0.000000    0.000000    1.157110
 ---------------------------------------------------------------------
 Symmetry turned off by external request.
 Stoichiometry    CN(2)
 Framework group  C*V[C*(CN)]
 Deg. of freedom     1
 Full point group                 C*V     NOp   4
 Rotational constants (GHZ):           0.0000000          58.4101024          58.4101024
 Leave Link  202 at Fri Sep 25 11:32:16 2020, MaxMem=   268435456 cpu:               0.6 elap:               0.1
 (Enter /applis/site/cecic/gaussian16/B.01/nehalem/g16/l301.exe)
 Standard basis: CC-pVTZ (5D, 7F)
 Ernie: Thresh=  0.10000D-02 Tol=  0.10000D-05 Strict=F.
 Ernie:  6 primitive shells out of 52 were deleted.
    60 basis functions,   104 primitive gaussians,    70 cartesian basis functions
     7 alpha electrons        6 beta electrons
       nuclear repulsion energy        19.2077182451 Hartrees.
 IExCor= 4336 DFT=T Ex+Corr=M062X ExCW=0 ScaHFX=  0.540000
 ScaDFX=  1.000000  1.000000  1.000000  1.000000 ScalE2=  1.000000  1.000000
 IRadAn=      5 IRanWt=     -1 IRanGd=            0 ICorTp=0 IEmpDi=  4
 NAtoms=    2 NActive=    2 NUniq=    2 SFac= 1.00D+00 NAtFMM=   60 NAOKFM=F Big=F
 Integral buffers will be    131072 words long.
 Raffenetti 2 integral format.
 Two-electron integral symmetry is turned off.
 Leave Link  301 at Fri Sep 25 11:32:17 2020, MaxMem=   268435456 cpu:               0.4 elap:               0.1
 (Enter /applis/site/cecic/gaussian16/B.01/nehalem/g16/l302.exe)
 NPDir=0 NMtPBC=     1 NCelOv=     1 NCel=       1 NClECP=     1 NCelD=      1
         NCelK=      1 NCelE2=     1 NClLst=     1 CellRange=     0.0.
 One-electron integrals computed using PRISM.
 NBasis=    60 RedAO= T EigKep=  1.94D-03  NBF=    60
 NBsUse=    60 1.00D-06 EigRej= -1.00D+00 NBFU=    60
 Precomputing XC quadrature grid using
 IXCGrd= 4 IRadAn=           5 IRanWt=          -1 IRanGd=           0 AccXCQ= 0.00D+00.
 Generated NRdTot=       0 NPtTot=           0 NUsed=           0 NTot=          32
 NSgBfM=    70    70    70    70    70 MxSgAt=     2 MxSgA2=     2.
 Leave Link  302 at Fri Sep 25 11:32:17 2020, MaxMem=   268435456 cpu:               1.4 elap:               0.2
 (Enter /applis/site/cecic/gaussian16/B.01/nehalem/g16/l303.exe)
 DipDrv:  MaxL=1.
 Leave Link  303 at Fri Sep 25 11:32:17 2020, MaxMem=   268435456 cpu:               0.3 elap:               0.1
 (Enter /applis/site/cecic/gaussian16/B.01/nehalem/g16/l401.exe)
 ExpMin= 1.21D-01 ExpMax= 1.14D+04 ExpMxC= 3.89D+02 IAcc=3 IRadAn=         5 AccDes= 0.00D+00
 Harris functional with IExCor= 1009 and IRadAn=       5 diagonalized for initial guess.
 HarFok:  IExCor= 1009 AccDes= 0.00D+00 IRadAn=         5 IDoV= 1 UseB2=F ITyADJ=14
 ICtDFT=  3500011 ScaDFX=  1.000000  1.000000  1.000000  1.000000
 FoFCou: FMM=F IPFlag=           0 FMFlag=      100000 FMFlg1=           0
         NFxFlg=           0 DoJE=T BraDBF=F KetDBF=T FulRan=T
         wScrn=  0.000000 ICntrl=       500 IOpCl=  0 I1Cent=   200000004 NGrid=           0
         NMat0=    1 NMatS0=      1 NMatT0=    0 NMatD0=    1 NMtDS0=    0 NMtDT0=    0
 Symmetry not used in FoFCou.
 Harris En= -92.6282548676101    
 JPrj=0 DoOrth=F DoCkMO=F.
 Initial guess <Sx>= 0.0000 <Sy>= 0.0000 <Sz>= 0.5000 <S**2>= 0.7500 S= 0.5000
 Leave Link  401 at Fri Sep 25 11:32:17 2020, MaxMem=   268435456 cpu:               1.8 elap:               0.3
 (Enter /applis/site/cecic/gaussian16/B.01/nehalem/g16/l502.exe)
 Keep R1 and R2 ints in memory in canonical form, NReq=10503886.
 FoFCou: FMM=F IPFlag=           0 FMFlag=           0 FMFlg1=           0
         NFxFlg=           0 DoJE=F BraDBF=F KetDBF=F FulRan=T
         wScrn=  0.000000 ICntrl=       600 IOpCl=  0 I1Cent=           0 NGrid=           0
         NMat0=    1 NMatS0=   1830 NMatT0=    0 NMatD0=    1 NMtDS0=    0 NMtDT0=    0
 Symmetry not used in FoFCou.
 Two-electron integral symmetry not used.
 UHF open shell SCF:
 Using DIIS extrapolation, IDIIS=  1040.
 NGot=   268435456 LenX=   265073800 LenY=   265068459
 Requested convergence on RMS density matrix=1.00D-08 within 128 cycles.
 Requested convergence on MAX density matrix=1.00D-06.
 Requested convergence on             energy=1.00D-06.
 No special actions if energy rises.
 Integral accuracy reduced to 1.0D-05 until final iterations.

 Cycle   1  Pass 0  IDiag  1:
 E= -92.6545677339465    
 DIIS: error= 5.00D-02 at cycle   1 NSaved=   1.
 NSaved= 1 IEnMin= 1 EnMin= -92.6545677339465     IErMin= 1 ErrMin= 5.00D-02
 ErrMax= 5.00D-02  0.00D+00 EMaxC= 1.00D-01 BMatC= 2.97D-01 BMatP= 2.97D-01
 IDIUse=3 WtCom= 5.00D-01 WtEn= 5.00D-01
 Coeff-Com:  0.100D+01
 Coeff-En:   0.100D+01
 Coeff:      0.100D+01
 Gap=     0.584 Goal=   None    Shift=    0.000
 Gap=     0.172 Goal=   None    Shift=    0.000
 GapD=    0.172 DampG=1.000 DampE=0.500 DampFc=0.5000 IDamp=-1.
 Damping current iteration by 5.00D-01
 RMSDP=4.63D-03 MaxDP=7.23D-02              OVMax= 2.50D-01

 Cycle   2  Pass 0  IDiag  1:
 E= -92.6573775118252     Delta-E=       -0.002809777879 Rises=F Damp=T
 DIIS: error= 2.77D-02 at cycle   2 NSaved=   2.
 NSaved= 2 IEnMin= 2 EnMin= -92.6573775118252     IErMin= 2 ErrMin= 2.77D-02
 ErrMax= 2.77D-02  0.00D+00 EMaxC= 1.00D-01 BMatC= 8.25D-02 BMatP= 2.97D-01
 IDIUse=3 WtCom= 7.23D-01 WtEn= 2.77D-01
 Coeff-Com:  0.277D+00 0.723D+00
 Coeff-En:   0.478D+00 0.522D+00
 Coeff:      0.333D+00 0.667D+00
 Gap=     0.531 Goal=   None    Shift=    0.000
 Gap=     0.227 Goal=   None    Shift=    0.000
 RMSDP=1.36D-03 MaxDP=1.74D-02 DE=-2.81D-03 OVMax= 2.08D-01

 Cycle   3  Pass 0  IDiag  1:
 E= -92.7065453301790     Delta-E=       -0.049167818354 Rises=F Damp=F
 DIIS: error= 9.41D-03 at cycle   3 NSaved=   3.
 NSaved= 3 IEnMin= 3 EnMin= -92.7065453301790     IErMin= 3 ErrMin= 9.41D-03
 ErrMax= 9.41D-03  0.00D+00 EMaxC= 1.00D-01 BMatC= 9.67D-03 BMatP= 8.25D-02
 IDIUse=3 WtCom= 9.06D-01 WtEn= 9.41D-02
 Coeff-Com:  0.987D-02 0.225D+00 0.765D+00
 Coeff-En:   0.000D+00 0.000D+00 0.100D+01
 Coeff:      0.894D-02 0.204D+00 0.787D+00
 Gap=     0.504 Goal=   None    Shift=    0.000
 Gap=     0.253 Goal=   None    Shift=    0.000
 RMSDP=6.25D-04 MaxDP=2.32D-02 DE=-4.92D-02 OVMax= 2.42D-02

 Cycle   4  Pass 0  IDiag  1:
 E= -92.7087783547456     Delta-E=       -0.002233024567 Rises=F Damp=F
 DIIS: error= 3.97D-03 at cycle   4 NSaved=   4.
 NSaved= 4 IEnMin= 4 EnMin= -92.7087783547456     IErMin= 4 ErrMin= 3.97D-03
 ErrMax= 3.97D-03  0.00D+00 EMaxC= 1.00D-01 BMatC= 7.41D-04 BMatP= 9.67D-03
 IDIUse=3 WtCom= 9.60D-01 WtEn= 3.97D-02
 Coeff-Com: -0.622D-02-0.183D-01 0.163D+00 0.862D+00
 Coeff-En:   0.000D+00 0.000D+00 0.000D+00 0.100D+01
 Coeff:     -0.597D-02-0.176D-01 0.156D+00 0.867D+00
 Gap=     0.504 Goal=   None    Shift=    0.000
 Gap=     0.258 Goal=   None    Shift=    0.000
 RMSDP=2.36D-04 MaxDP=4.59D-03 DE=-2.23D-03 OVMax= 1.95D-02

 Cycle   5  Pass 0  IDiag  1:
 E= -92.7091987987887     Delta-E=       -0.000420444043 Rises=F Damp=F
 DIIS: error= 1.81D-03 at cycle   5 NSaved=   5.
 NSaved= 5 IEnMin= 5 EnMin= -92.7091987987887     IErMin= 5 ErrMin= 1.81D-03
 ErrMax= 1.81D-03  0.00D+00 EMaxC= 1.00D-01 BMatC= 1.45D-04 BMatP= 7.41D-04
 IDIUse=3 WtCom= 9.82D-01 WtEn= 1.81D-02
 Coeff-Com: -0.568D-02 0.982D-02-0.122D+00-0.305D+00 0.142D+01
 Coeff-En:   0.000D+00 0.000D+00 0.000D+00 0.000D+00 0.100D+01
 Coeff:     -0.558D-02 0.964D-02-0.119D+00-0.299D+00 0.141D+01
 Gap=     0.503 Goal=   None    Shift=    0.000
 Gap=     0.261 Goal=   None    Shift=    0.000
 RMSDP=2.31D-04 MaxDP=4.00D-03 DE=-4.20D-04 OVMax= 2.00D-02

 Cycle   6  Pass 0  IDiag  1:
 E= -92.7094605218959     Delta-E=       -0.000261723107 Rises=F Damp=F
 DIIS: error= 1.27D-03 at cycle   6 NSaved=   6.
 NSaved= 6 IEnMin= 6 EnMin= -92.7094605218959     IErMin= 6 ErrMin= 1.27D-03
 ErrMax= 1.27D-03  0.00D+00 EMaxC= 1.00D-01 BMatC= 6.82D-05 BMatP= 1.45D-04
 IDIUse=3 WtCom= 9.87D-01 WtEn= 1.27D-02
 Coeff-Com: -0.502D-02 0.162D-01 0.172D+00 0.227D+00-0.255D+01 0.314D+01
 Coeff-En:   0.000D+00 0.000D+00 0.000D+00 0.000D+00 0.000D+00 0.100D+01
 Coeff:     -0.496D-02 0.160D-01 0.169D+00 0.224D+00-0.251D+01 0.311D+01
 Gap=     0.502 Goal=   None    Shift=    0.000
 Gap=     0.263 Goal=   None    Shift=    0.000
 RMSDP=3.76D-04 MaxDP=7.42D-03 DE=-2.62D-04 OVMax= 3.32D-02

 Cycle   7  Pass 0  IDiag  1:
 E= -92.7096505930833     Delta-E=       -0.000190071187 Rises=F Damp=F
 DIIS: error= 4.56D-04 at cycle   7 NSaved=   7.
 NSaved= 7 IEnMin= 7 EnMin= -92.7096505930833     IErMin= 7 ErrMin= 4.56D-04
 ErrMax= 4.56D-04  0.00D+00 EMaxC= 1.00D-01 BMatC= 1.04D-05 BMatP= 6.82D-05
 IDIUse=3 WtCom= 9.95D-01 WtEn= 4.56D-03
 Coeff-Com:  0.114D-02-0.521D-03 0.355D-01 0.654D-01-0.251D+00 0.272D+00
 Coeff-Com:  0.877D+00
 Coeff-En:   0.000D+00 0.000D+00 0.000D+00 0.000D+00 0.000D+00 0.000D+00
 Coeff-En:   0.100D+01
 Coeff:      0.114D-02-0.519D-03 0.353D-01 0.651D-01-0.250D+00 0.271D+00
 Coeff:      0.878D+00
 Gap=     0.502 Goal=   None    Shift=    0.000
 Gap=     0.262 Goal=   None    Shift=    0.000
 RMSDP=3.24D-05 MaxDP=5.50D-04 DE=-1.90D-04 OVMax= 2.75D-03

 Cycle   8  Pass 0  IDiag  1:
 E= -92.7096517959407     Delta-E=       -0.000001202857 Rises=F Damp=F
 DIIS: error= 1.12D-04 at cycle   8 NSaved=   8.
 NSaved= 8 IEnMin= 8 EnMin= -92.7096517959407     IErMin= 8 ErrMin= 1.12D-04
 ErrMax= 1.12D-04  0.00D+00 EMaxC= 1.00D-01 BMatC= 8.41D-07 BMatP= 1.04D-05
 IDIUse=3 WtCom= 9.99D-01 WtEn= 1.12D-03
 Coeff-Com:  0.463D-03-0.620D-03 0.724D-02 0.115D-01-0.130D+00 0.485D-01
 Coeff-Com: -0.953D-02 0.107D+01
 Coeff-En:   0.000D+00 0.000D+00 0.000D+00 0.000D+00 0.000D+00 0.000D+00
 Coeff-En:   0.000D+00 0.100D+01
 Coeff:      0.462D-03-0.619D-03 0.723D-02 0.115D-01-0.130D+00 0.484D-01
 Coeff:     -0.952D-02 0.107D+01
 Gap=     0.502 Goal=   None    Shift=    0.000
 Gap=     0.262 Goal=   None    Shift=    0.000
 RMSDP=4.14D-05 MaxDP=7.71D-04 DE=-1.20D-06 OVMax= 3.47D-03

 Cycle   9  Pass 0  IDiag  1:
 E= -92.7096538314066     Delta-E=       -0.000002035466 Rises=F Damp=F
 DIIS: error= 7.53D-05 at cycle   9 NSaved=   9.
 NSaved= 9 IEnMin= 9 EnMin= -92.7096538314066     IErMin= 9 ErrMin= 7.53D-05
 ErrMax= 7.53D-05  0.00D+00 EMaxC= 1.00D-01 BMatC= 3.48D-07 BMatP= 8.41D-07
 IDIUse=1 WtCom= 1.00D+00 WtEn= 0.00D+00
 Coeff-Com: -0.454D-03 0.110D-02 0.513D-03-0.256D-02-0.433D-01 0.108D+00
 Coeff-Com: -0.272D+00-0.199D+00 0.141D+01
 Coeff:     -0.454D-03 0.110D-02 0.513D-03-0.256D-02-0.433D-01 0.108D+00
 Coeff:     -0.272D+00-0.199D+00 0.141D+01
 Gap=     0.502 Goal=   None    Shift=    0.000
 Gap=     0.262 Goal=   None    Shift=    0.000
 RMSDP=8.10D-06 MaxDP=1.13D-04 DE=-2.04D-06 OVMax= 7.00D-04

 Initial convergence to 1.0D-05 achieved.  Increase integral accuracy.
 Cycle  10  Pass 1  IDiag  1:
 E= -92.7096593704088     Delta-E=       -0.000005539002 Rises=F Damp=F
 DIIS: error= 2.85D-05 at cycle   1 NSaved=   1.
 NSaved= 1 IEnMin= 1 EnMin= -92.7096593704088     IErMin= 1 ErrMin= 2.85D-05
 ErrMax= 2.85D-05  0.00D+00 EMaxC= 1.00D-01 BMatC= 7.55D-08 BMatP= 7.55D-08
 IDIUse=1 WtCom= 1.00D+00 WtEn= 0.00D+00
 Coeff-Com:  0.100D+01
 Coeff:      0.100D+01
 Gap=     0.502 Goal=   None    Shift=    0.000
 Gap=     0.262 Goal=   None    Shift=    0.000
 RMSDP=8.10D-06 MaxDP=1.13D-04 DE=-5.54D-06 OVMax= 1.18D-04

 Cycle  11  Pass 1  IDiag  1:
 E= -92.7096593987569     Delta-E=       -0.000000028348 Rises=F Damp=F
 DIIS: error= 2.20D-05 at cycle   2 NSaved=   2.
 NSaved= 2 IEnMin= 2 EnMin= -92.7096593987569     IErMin= 2 ErrMin= 2.20D-05
 ErrMax= 2.20D-05  0.00D+00 EMaxC= 1.00D-01 BMatC= 2.55D-08 BMatP= 7.55D-08
 IDIUse=1 WtCom= 1.00D+00 WtEn= 0.00D+00
 Coeff-Com:  0.244D+00 0.756D+00
 Coeff:      0.244D+00 0.756D+00
 Gap=     0.502 Goal=   None    Shift=    0.000
 Gap=     0.262 Goal=   None    Shift=    0.000
 RMSDP=1.37D-06 MaxDP=2.04D-05 DE=-2.83D-08 OVMax= 1.03D-04

 Cycle  12  Pass 1  IDiag  1:
 E= -92.7096594033890     Delta-E=       -0.000000004632 Rises=F Damp=F
 DIIS: error= 2.76D-05 at cycle   3 NSaved=   3.
 NSaved= 3 IEnMin= 3 EnMin= -92.7096594033890     IErMin= 2 ErrMin= 2.20D-05
 ErrMax= 2.76D-05  0.00D+00 EMaxC= 1.00D-01 BMatC= 3.74D-08 BMatP= 2.55D-08
 IDIUse=1 WtCom= 1.00D+00 WtEn= 0.00D+00
 Coeff-Com: -0.810D-01 0.588D+00 0.493D+00
 Coeff:     -0.810D-01 0.588D+00 0.493D+00
 Gap=     0.502 Goal=   None    Shift=    0.000
 Gap=     0.262 Goal=   None    Shift=    0.000
 RMSDP=8.00D-07 MaxDP=1.40D-05 DE=-4.63D-09 OVMax= 5.50D-05

 Cycle  13  Pass 1  IDiag  1:
 E= -92.7096594138712     Delta-E=       -0.000000010482 Rises=F Damp=F
 DIIS: error= 5.89D-06 at cycle   4 NSaved=   4.
 NSaved= 4 IEnMin= 4 EnMin= -92.7096594138712     IErMin= 4 ErrMin= 5.89D-06
 ErrMax= 5.89D-06  0.00D+00 EMaxC= 1.00D-01 BMatC= 1.67D-09 BMatP= 2.55D-08
 IDIUse=1 WtCom= 1.00D+00 WtEn= 0.00D+00
 Coeff-Com: -0.158D-01-0.534D+00-0.384D+00 0.193D+01
 Coeff:     -0.158D-01-0.534D+00-0.384D+00 0.193D+01
 Gap=     0.502 Goal=   None    Shift=    0.000
 Gap=     0.262 Goal=   None    Shift=    0.000
 RMSDP=1.03D-06 MaxDP=1.41D-05 DE=-1.05D-08 OVMax= 5.76D-05

 Cycle  14  Pass 1  IDiag  1:
 E= -92.7096594170641     Delta-E=       -0.000000003193 Rises=F Damp=F
 DIIS: error= 1.15D-06 at cycle   5 NSaved=   5.
 NSaved= 5 IEnMin= 5 EnMin= -92.7096594170641     IErMin= 5 ErrMin= 1.15D-06
 ErrMax= 1.15D-06  0.00D+00 EMaxC= 1.00D-01 BMatC= 9.57D-11 BMatP= 1.67D-09
 IDIUse=1 WtCom= 1.00D+00 WtEn= 0.00D+00
 Coeff-Com:  0.807D-02-0.125D+00-0.892D-01 0.264D+00 0.943D+00
 Coeff:      0.807D-02-0.125D+00-0.892D-01 0.264D+00 0.943D+00
 Gap=     0.502 Goal=   None    Shift=    0.000
 Gap=     0.262 Goal=   None    Shift=    0.000
 RMSDP=1.48D-07 MaxDP=2.24D-06 DE=-3.19D-09 OVMax= 8.37D-06

 Cycle  15  Pass 1  IDiag  1:
 E= -92.7096594171685     Delta-E=       -0.000000000104 Rises=F Damp=F
 DIIS: error= 7.30D-07 at cycle   6 NSaved=   6.
 NSaved= 6 IEnMin= 6 EnMin= -92.7096594171685     IErMin= 6 ErrMin= 7.30D-07
 ErrMax= 7.30D-07  0.00D+00 EMaxC= 1.00D-01 BMatC= 2.45D-11 BMatP= 9.57D-11
 IDIUse=1 WtCom= 1.00D+00 WtEn= 0.00D+00
 Coeff-Com:  0.161D-02 0.321D-01 0.336D-01-0.138D+00-0.336D-01 0.110D+01
 Coeff:      0.161D-02 0.321D-01 0.336D-01-0.138D+00-0.336D-01 0.110D+01
 Gap=     0.502 Goal=   None    Shift=    0.000
 Gap=     0.262 Goal=   None    Shift=    0.000
 RMSDP=7.02D-08 MaxDP=1.18D-06 DE=-1.04D-10 OVMax= 4.65D-06

 Cycle  16  Pass 1  IDiag  1:
 E= -92.7096594172026     Delta-E=       -0.000000000034 Rises=F Damp=F
 DIIS: error= 4.33D-07 at cycle   7 NSaved=   7.
 NSaved= 7 IEnMin= 7 EnMin= -92.7096594172026     IErMin= 7 ErrMin= 4.33D-07
 ErrMax= 4.33D-07  0.00D+00 EMaxC= 1.00D-01 BMatC= 9.38D-12 BMatP= 2.45D-11
 IDIUse=1 WtCom= 1.00D+00 WtEn= 0.00D+00
 Coeff-Com: -0.472D-02 0.123D-01 0.127D-01 0.220D-01-0.415D+00-0.469D+00
 Coeff-Com:  0.184D+01
 Coeff:     -0.472D-02 0.123D-01 0.127D-01 0.220D-01-0.415D+00-0.469D+00
 Coeff:      0.184D+01
 Gap=     0.502 Goal=   None    Shift=    0.000
 Gap=     0.262 Goal=   None    Shift=    0.000
 RMSDP=9.67D-08 MaxDP=1.87D-06 DE=-3.41D-11 OVMax= 7.82D-06

 Cycle  17  Pass 1  IDiag  1:
 E= -92.7096594172264     Delta-E=       -0.000000000024 Rises=F Damp=F
 DIIS: error= 1.72D-07 at cycle   8 NSaved=   8.
 NSaved= 8 IEnMin= 8 EnMin= -92.7096594172264     IErMin= 8 ErrMin= 1.72D-07
 ErrMax= 1.72D-07  0.00D+00 EMaxC= 1.00D-01 BMatC= 1.18D-12 BMatP= 9.38D-12
 IDIUse=1 WtCom= 1.00D+00 WtEn= 0.00D+00
 Coeff-Com:  0.337D-03-0.137D-01-0.824D-02 0.386D-01 0.480D-01-0.120D+00
 Coeff-Com: -0.374D+00 0.143D+01
 Coeff:      0.337D-03-0.137D-01-0.824D-02 0.386D-01 0.480D-01-0.120D+00
 Coeff:     -0.374D+00 0.143D+01
 Gap=     0.502 Goal=   None    Shift=    0.000
 Gap=     0.262 Goal=   None    Shift=    0.000
 RMSDP=3.90D-08 MaxDP=7.72D-07 DE=-2.37D-11 OVMax= 3.16D-06

 Cycle  18  Pass 1  IDiag  1:
 E= -92.7096594172286     Delta-E=       -0.000000000002 Rises=F Damp=F
 DIIS: error= 1.71D-08 at cycle   9 NSaved=   9.
 NSaved= 9 IEnMin= 9 EnMin= -92.7096594172286     IErMin= 9 ErrMin= 1.71D-08
 ErrMax= 1.71D-08  0.00D+00 EMaxC= 1.00D-01 BMatC= 1.88D-14 BMatP= 1.18D-12
 IDIUse=1 WtCom= 1.00D+00 WtEn= 0.00D+00
 Coeff-Com:  0.138D-03 0.309D-03-0.560D-03-0.297D-02 0.109D-01 0.306D-01
 Coeff-Com: -0.427D-01-0.759D-01 0.108D+01
 Coeff:      0.138D-03 0.309D-03-0.560D-03-0.297D-02 0.109D-01 0.306D-01
 Coeff:     -0.427D-01-0.759D-01 0.108D+01
 Gap=     0.502 Goal=   None    Shift=    0.000
 Gap=     0.262 Goal=   None    Shift=    0.000
 RMSDP=1.50D-09 MaxDP=2.12D-08 DE=-2.25D-12 OVMax= 8.05D-08

 SCF Done:  E(UM062X) =  -92.7096594172     A.U. after   18 cycles
            NFock= 18  Conv=0.15D-08     -V/T= 2.0053
 <Sx>= 0.0000 <Sy>= 0.0000 <Sz>= 0.5000 <S**2>= 0.7653 S= 0.5076
 <L.S>= 0.000000000000E+00
 KE= 9.221790996567D+01 PE=-2.548032972917D+02 EE= 5.066800966367D+01
 Annihilation of the first spin contaminant:
 S**2 before annihilation     0.7653,   after     0.7502
 Leave Link  502 at Fri Sep 25 11:32:20 2020, MaxMem=   268435456 cpu:              18.1 elap:               2.5
 (Enter /applis/site/cecic/gaussian16/B.01/nehalem/g16/l601.exe)
 Copying SCF densities to generalized density rwf, IOpCl= 1 IROHF=0.

 **********************************************************************

            Population analysis using the SCF Density.

 **********************************************************************

 Alpha  occ. eigenvalues --  -14.80888 -10.65920  -1.06686  -0.58251  -0.47265
 Alpha  occ. eigenvalues --   -0.46050  -0.46050
 Alpha virt. eigenvalues --    0.04162   0.04162   0.21062   0.32293   0.33291
 Alpha virt. eigenvalues --    0.33291   0.49659   0.57864   0.57864   0.65784
 Alpha virt. eigenvalues --    0.65784   0.66784   0.87559   0.87559   0.93994
 Alpha virt. eigenvalues --    1.21439   1.21439   1.33386   1.56943   1.56943
 Alpha virt. eigenvalues --    1.79597   2.01022   2.01022   2.24233   2.61777
 Alpha virt. eigenvalues --    2.61777   2.73221   2.73221   2.77681   2.81711
 Alpha virt. eigenvalues --    2.81711   2.91836   2.91836   2.96378   2.96378
 Alpha virt. eigenvalues --    3.11682   3.41842   3.41842   3.94609   3.94754
 Alpha virt. eigenvalues --    3.94754   4.41594   4.41594   4.57761   4.57761
 Alpha virt. eigenvalues --    4.82180   4.82180   4.98319   5.35579   5.51033
 Alpha virt. eigenvalues --    5.51033   6.03891  12.68104
  Beta  occ. eigenvalues --  -14.80766 -10.64559  -1.04567  -0.49943  -0.44479
  Beta  occ. eigenvalues --   -0.44479
  Beta virt. eigenvalues --   -0.18280   0.05961   0.05961   0.17215   0.31075
  Beta virt. eigenvalues --    0.32204   0.32204   0.50119   0.57166   0.57166
  Beta virt. eigenvalues --    0.66043   0.66043   0.70075   0.86905   0.86905
  Beta virt. eigenvalues --    0.92841   1.20960   1.20960   1.30868   1.55682
  Beta virt. eigenvalues --    1.55682   1.81554   2.02986   2.02986   2.27284
  Beta virt. eigenvalues --    2.62858   2.62858   2.73455   2.73456   2.77904
  Beta virt. eigenvalues --    2.85151   2.85151   2.96020   2.96020   2.97036
  Beta virt. eigenvalues --    2.97036   3.17237   3.40160   3.40160   3.93319
  Beta virt. eigenvalues --    3.93319   3.94667   4.39608   4.39609   4.55737
  Beta virt. eigenvalues --    4.55737   4.82163   4.82163   5.00879   5.36826
  Beta virt. eigenvalues --    5.49055   5.49055   6.03940  12.64465
          Condensed to atoms (all electrons):
               1          2
     1  N    6.152941   0.882229
     2  C    0.882229   5.082601
          Atomic-Atomic Spin Densities.
               1          2
     1  N    0.001998  -0.026555
     2  C   -0.026555   1.051113
 Mulliken charges and spin densities:
               1          2
     1  N   -0.035170  -0.024557
     2  C    0.035170   1.024557
 Sum of Mulliken charges =  -0.00000   1.00000
 Mulliken charges and spin densities with hydrogens summed into heavy atoms:
               1          2
     1  N   -0.035170  -0.024557
     2  C    0.035170   1.024557
 Electronic spatial extent (au):  <R**2>=             51.1990
 Charge=             -0.0000 electrons
 Dipole moment (field-independent basis, Debye):
    X=             -0.0000    Y=             -0.0000    Z=              1.8277  Tot=              1.8277
 Quadrupole moment (field-independent basis, Debye-Ang):
   XX=            -10.9820   YY=            -10.9820   ZZ=             -8.3143
   XY=             -0.0000   XZ=             -0.0000   YZ=             -0.0000
 Traceless Quadrupole moment (field-independent basis, Debye-Ang):
   XX=             -0.8892   YY=             -0.8892   ZZ=              1.7785
   XY=             -0.0000   XZ=             -0.0000   YZ=             -0.0000
 Octapole moment (field-independent basis, Debye-Ang**2):
  XXX=             -0.0000  YYY=             -0.0000  ZZZ=            -13.7156  XYY=             -0.0000
  XXY=             -0.0000  XXZ=             -5.9869  XZZ=             -0.0000  YZZ=             -0.0000
  YYZ=             -5.9869  XYZ=             -0.0000
 Hexadecapole moment (field-independent basis, Debye-Ang**3):
 XXXX=            -10.9698 YYYY=            -10.9698 ZZZZ=            -46.3450 XXXY=             -0.0000
 XXXZ=              0.0000 YYYX=             -0.0000 YYYZ=             -0.0000 ZZZX=              0.0000
 ZZZY=             -0.0000 XXYY=             -3.6566 XXZZ=            -10.3260 YYZZ=            -10.3260
 XXYZ=             -0.0000 YYXZ=             -0.0000 ZZXY=             -0.0000
 N-N= 1.920771824515D+01 E-N=-2.548032974165D+02  KE= 9.221790996567D+01
                          Isotropic Fermi Contact Couplings
        Atom                 a.u.       MegaHertz       Gauss      10(-4) cm-1
     1  N(14)             -0.04629     -14.95545      -5.33648      -4.98860
     2  C(13)              0.78039     877.30758     313.04516     292.63831
 --------------------------------------------------------
       Center         ----  Spin Dipole Couplings  ----
                      3XX-RR        3YY-RR        3ZZ-RR
 --------------------------------------------------------
     1   Atom       -0.457683     -0.457683      0.915367
     2   Atom       -0.397272     -0.397272      0.794544
 --------------------------------------------------------
                        XY            XZ            YZ
 --------------------------------------------------------
     1   Atom       -0.000000      0.000000     -0.000000
     2   Atom       -0.000000     -0.000000      0.000000
 --------------------------------------------------------


 ---------------------------------------------------------------------------------
              Anisotropic Spin Dipole Couplings in Principal Axis System
 ---------------------------------------------------------------------------------

       Atom             a.u.   MegaHertz   Gauss  10(-4) cm-1        Axes

              Baa    -0.4577   -17.652    -6.299    -5.888  0.0080  1.0000  0.0000
     1 N(14)  Bbb    -0.4577   -17.652    -6.299    -5.888  1.0000 -0.0080 -0.0000
              Bcc     0.9154    35.304    12.597    11.776  0.0000 -0.0000  1.0000
 
              Baa    -0.3973   -53.310   -19.022   -17.782  0.9999  0.0128  0.0000
     2 C(13)  Bbb    -0.3973   -53.310   -19.022   -17.782 -0.0128  0.9999  0.0000
              Bcc     0.7945   106.620    38.045    35.565  0.0000  0.0000  1.0000
 

 ---------------------------------------------------------------------------------

 No NMR shielding tensors so no spin-rotation constants.
 Leave Link  601 at Fri Sep 25 11:32:20 2020, MaxMem=   268435456 cpu:               1.6 elap:               0.2
 (Enter /applis/site/cecic/gaussian16/B.01/nehalem/g16/l701.exe)
 ... and contract with generalized density number  0.
 Compute integral first derivatives.
 Leave Link  701 at Fri Sep 25 11:32:20 2020, MaxMem=   268435456 cpu:               1.0 elap:               0.1
 (Enter /applis/site/cecic/gaussian16/B.01/nehalem/g16/l702.exe)
 L702 exits ... SP integral derivatives will be done elsewhere.
 Leave Link  702 at Fri Sep 25 11:32:20 2020, MaxMem=   268435456 cpu:               0.5 elap:               0.1
 (Enter /applis/site/cecic/gaussian16/B.01/nehalem/g16/l703.exe)
 Integral derivatives from FoFJK, PRISM(SPDF).
 Compute integral first derivatives, UseDBF=F ICtDFT=           0.
 Calling FoFJK, ICntrl=      2127 FMM=F ISym2X=0 I1Cent= 0 IOpClX= 1 NMat=1 NMatS=1 NMatT=0.
 FoFJK:  IHMeth= 1 ICntrl=    2127 DoSepK=F KAlg= 0 I1Cent=           0 FoldK=F
 IRaf=         0 NMat=       1 IRICut=       1 DoRegI=T DoRafI=F ISym2E= 0 IDoP0=0 IntGTp=1.
 FoFCou: FMM=F IPFlag=           0 FMFlag=      100000 FMFlg1=         800
         NFxFlg=           0 DoJE=F BraDBF=F KetDBF=F FulRan=T
         wScrn=  0.000000 ICntrl=      2127 IOpCl=  1 I1Cent=           0 NGrid=           0
         NMat0=    1 NMatS0=      1 NMatT0=    0 NMatD0=    1 NMtDS0=    0 NMtDT0=    0
 Symmetry not used in FoFCou.
 Leave Link  703 at Fri Sep 25 11:32:21 2020, MaxMem=   268435456 cpu:               4.4 elap:               0.6
 (Enter /applis/site/cecic/gaussian16/B.01/nehalem/g16/l716.exe)
 Dipole        =-1.09031351D-15-3.41874721D-15 7.19085417D-01
 -------------------------------------------------------------------
 Center     Atomic                   Forces (Hartrees/Bohr)
 Number     Number              X              Y              Z
 -------------------------------------------------------------------
      1        7           0.000000000    0.000000000    0.009181431
      2        6          -0.000000000   -0.000000000   -0.009181431
 -------------------------------------------------------------------
 Cartesian Forces:  Max     0.009181431 RMS     0.005300902
 Leave Link  716 at Fri Sep 25 11:32:21 2020, MaxMem=   268435456 cpu:               0.3 elap:               0.1
 (Enter /applis/site/cecic/gaussian16/B.01/nehalem/g16/l103.exe)

 GradGradGradGradGradGradGradGradGradGradGradGradGradGradGradGradGradGrad
 Berny optimization.
 FormGI is forming the generalized inverse of G from B-inverse, IUseBI=4.
 Internal  Forces:  Max     0.009181431 RMS     0.009181431
 Search for a local minimum.
 Step number   1 out of a maximum of  100
 All quantities printed in internal units (Hartrees-Bohrs-Radians)
 RMS Force = .91814D-02 SwitMx=.10000D-02 MixMth= 1
 Mixed Optimization -- RFO/linear search
 Second derivative matrix not updated -- first step.
 The second derivative matrix:
                          R1
           R1           1.29704
 ITU=  0
     Eigenvalues ---    1.29704
 RFO step:  Lambda=-6.49899959D-05 EMin= 1.29703734D+00
 Linear search not attempted -- first point.
 Iteration  1 RMS(Cart)=  0.00500520 RMS(Int)=  0.00000000
 Iteration  2 RMS(Cart)=  0.00000000 RMS(Int)=  0.00000000
 ITry= 1 IFail=0 DXMaxC= 3.54D-03 DCOld= 1.00D+10 DXMaxT= 3.00D-01 DXLimC= 3.00D+00 Rises=F
 Variable       Old X    -DE/DX   Delta X   Delta X   Delta X     New X
                                 (Linear)    (Quad)   (Total)
    R1        2.18662  -0.00918   0.00000  -0.00708  -0.00708   2.17954
         Item               Value     Threshold  Converged?
 Maximum Force            0.009181     0.000450     NO 
 RMS     Force            0.009181     0.000300     NO 
 Maximum Displacement     0.003539     0.001800     NO 
 RMS     Displacement     0.005005     0.001200     NO 
 Predicted change in Energy=-3.249663D-05
 Lowest energy point so far.  Saving SCF results.
 GradGradGradGradGradGradGradGradGradGradGradGradGradGradGradGradGradGrad

 Leave Link  103 at Fri Sep 25 11:32:21 2020, MaxMem=   268435456 cpu:               0.9 elap:               0.2
 (Enter /applis/site/cecic/gaussian16/B.01/nehalem/g16/l202.exe)
                          Input orientation:                          
 ---------------------------------------------------------------------
 Center     Atomic      Atomic             Coordinates (Angstroms)
 Number     Number       Type             X           Y           Z
 ---------------------------------------------------------------------
      1          7           0        0.000000    0.000000    0.001873
      2          6           0        0.000000    0.000000    1.155237
 ---------------------------------------------------------------------
 Symmetry turned off by external request.
 Stoichiometry    CN(2)
 Framework group  C*V[C*(CN)]
 Deg. of freedom     1
 Full point group                 C*V     NOp   4
 Rotational constants (GHZ):           0.0000000          58.7901110          58.7901110
 Leave Link  202 at Fri Sep 25 11:32:21 2020, MaxMem=   268435456 cpu:               0.2 elap:               0.1
 (Enter /applis/site/cecic/gaussian16/B.01/nehalem/g16/l301.exe)
 Standard basis: CC-pVTZ (5D, 7F)
 Ernie: Thresh=  0.10000D-02 Tol=  0.10000D-05 Strict=F.
 Ernie:  6 primitive shells out of 52 were deleted.
    60 basis functions,   104 primitive gaussians,    70 cartesian basis functions
     7 alpha electrons        6 beta electrons
       nuclear repulsion energy        19.2700984151 Hartrees.
 IExCor= 4336 DFT=T Ex+Corr=M062X ExCW=0 ScaHFX=  0.540000
 ScaDFX=  1.000000  1.000000  1.000000  1.000000 ScalE2=  1.000000  1.000000
 IRadAn=      5 IRanWt=     -1 IRanGd=            0 ICorTp=0 IEmpDi=  4
 NAtoms=    2 NActive=    2 NUniq=    2 SFac= 1.00D+00 NAtFMM=   60 NAOKFM=F Big=F
 Integral buffers will be    131072 words long.
 Raffenetti 2 integral format.
 Two-electron integral symmetry is turned off.
 Leave Link  301 at Fri Sep 25 11:32:21 2020, MaxMem=   268435456 cpu:               0.7 elap:               0.2
 (Enter /applis/site/cecic/gaussian16/B.01/nehalem/g16/l302.exe)
 NPDir=0 NMtPBC=     1 NCelOv=     1 NCel=       1 NClECP=     1 NCelD=      1
         NCelK=      1 NCelE2=     1 NClLst=     1 CellRange=     0.0.
 One-electron integrals computed using PRISM.
 NBasis=    60 RedAO= T EigKep=  1.93D-03  NBF=    60
 NBsUse=    60 1.00D-06 EigRej= -1.00D+00 NBFU=    60
 Precomputing XC quadrature grid using
 IXCGrd= 4 IRadAn=           5 IRanWt=          -1 IRanGd=           0 AccXCQ= 0.00D+00.
 Generated NRdTot=       0 NPtTot=           0 NUsed=           0 NTot=          32
 NSgBfM=    70    70    70    70    70 MxSgAt=     2 MxSgA2=     2.
 Leave Link  302 at Fri Sep 25 11:32:22 2020, MaxMem=   268435456 cpu:               1.8 elap:               0.3
 (Enter /applis/site/cecic/gaussian16/B.01/nehalem/g16/l303.exe)
 DipDrv:  MaxL=1.
 Leave Link  303 at Fri Sep 25 11:32:22 2020, MaxMem=   268435456 cpu:               0.3 elap:               0.1
 (Enter /applis/site/cecic/gaussian16/B.01/nehalem/g16/l401.exe)
 Initial guess from the checkpoint file:  "input.chk"
 B after Tr=     0.000000    0.000000    0.000272
         Rot=    1.000000    0.000000    0.000000    0.000000 Ang=   0.00 deg.
 Guess basis will be translated and rotated to current coordinates.
 JPrj=2 DoOrth=T DoCkMO=T.
 Initial guess <Sx>= 0.0000 <Sy>= 0.0000 <Sz>= 0.5000 <S**2>= 0.7653 S= 0.5076
 Leave Link  401 at Fri Sep 25 11:32:22 2020, MaxMem=   268435456 cpu:               1.2 elap:               0.2
 (Enter /applis/site/cecic/gaussian16/B.01/nehalem/g16/l502.exe)
 Keep R1 and R2 ints in memory in canonical form, NReq=10503886.
 FoFCou: FMM=F IPFlag=           0 FMFlag=           0 FMFlg1=           0
         NFxFlg=           0 DoJE=F BraDBF=F KetDBF=F FulRan=T
         wScrn=  0.000000 ICntrl=       600 IOpCl=  0 I1Cent=           0 NGrid=           0
         NMat0=    1 NMatS0=   1830 NMatT0=    0 NMatD0=    1 NMtDS0=    0 NMtDT0=    0
 Symmetry not used in FoFCou.
 Two-electron integral symmetry not used.
 UHF open shell SCF:
 Using DIIS extrapolation, IDIIS=  1040.
 NGot=   268435456 LenX=   265073800 LenY=   265068459
 Requested convergence on RMS density matrix=1.00D-08 within 128 cycles.
 Requested convergence on MAX density matrix=1.00D-06.
 Requested convergence on             energy=1.00D-06.
 No special actions if energy rises.

 Cycle   1  Pass 1  IDiag  1:
 E= -92.7096836639734    
 DIIS: error= 4.54D-04 at cycle   1 NSaved=   1.
 NSaved= 1 IEnMin= 1 EnMin= -92.7096836639734     IErMin= 1 ErrMin= 4.54D-04
 ErrMax= 4.54D-04  0.00D+00 EMaxC= 1.00D-01 BMatC= 4.43D-05 BMatP= 4.43D-05
 IDIUse=3 WtCom= 9.95D-01 WtEn= 4.54D-03
 Coeff-Com:  0.100D+01
 Coeff-En:   0.100D+01
 Coeff:      0.100D+01
 Gap=     2.665 Goal=   None    Shift=    0.000
 Gap=     2.022 Goal=   None    Shift=    0.000
 RMSDP=4.92D-05 MaxDP=7.66D-04              OVMax= 1.80D-03

 Cycle   2  Pass 1  IDiag  1:
 E= -92.7096910961710     Delta-E=       -0.000007432198 Rises=F Damp=F
 DIIS: error= 2.92D-04 at cycle   2 NSaved=   2.
 NSaved= 2 IEnMin= 2 EnMin= -92.7096910961710     IErMin= 2 ErrMin= 2.92D-04
 ErrMax= 2.92D-04  0.00D+00 EMaxC= 1.00D-01 BMatC= 1.44D-05 BMatP= 4.43D-05
 IDIUse=3 WtCom= 9.97D-01 WtEn= 2.92D-03
 Coeff-Com:  0.328D+00 0.672D+00
 Coeff-En:   0.000D+00 0.100D+01
 Coeff:      0.327D+00 0.673D+00
 Gap=     0.504 Goal=   None    Shift=    0.000
 Gap=     0.263 Goal=   None    Shift=    0.000
 RMSDP=2.13D-05 MaxDP=3.02D-04 DE=-7.43D-06 OVMax= 8.27D-04

 Cycle   3  Pass 1  IDiag  1:
 E= -92.7096925650799     Delta-E=       -0.000001468909 Rises=F Damp=F
 DIIS: error= 2.61D-04 at cycle   3 NSaved=   3.
 NSaved= 3 IEnMin= 3 EnMin= -92.7096925650799     IErMin= 3 ErrMin= 2.61D-04
 ErrMax= 2.61D-04  0.00D+00 EMaxC= 1.00D-01 BMatC= 6.29D-06 BMatP= 1.44D-05
 IDIUse=3 WtCom= 9.97D-01 WtEn= 2.61D-03
 Coeff-Com:  0.105D+00 0.395D+00 0.500D+00
 Coeff-En:   0.000D+00 0.305D+00 0.695D+00
 Coeff:      0.105D+00 0.395D+00 0.500D+00
 Gap=     0.504 Goal=   None    Shift=    0.000
 Gap=     0.263 Goal=   None    Shift=    0.000
 RMSDP=1.20D-05 MaxDP=2.23D-04 DE=-1.47D-06 OVMax= 8.10D-04

 Cycle   4  Pass 1  IDiag  1:
 E= -92.7096938365357     Delta-E=       -0.000001271456 Rises=F Damp=F
 DIIS: error= 1.00D-04 at cycle   4 NSaved=   4.
 NSaved= 4 IEnMin= 4 EnMin= -92.7096938365357     IErMin= 4 ErrMin= 1.00D-04
 ErrMax= 1.00D-04  0.00D+00 EMaxC= 1.00D-01 BMatC= 8.48D-07 BMatP= 6.29D-06
 IDIUse=3 WtCom= 9.99D-01 WtEn= 1.00D-03
 Coeff-Com: -0.282D-01-0.775D-02 0.268D+00 0.768D+00
 Coeff-En:   0.000D+00 0.000D+00 0.847D-01 0.915D+00
 Coeff:     -0.282D-01-0.774D-02 0.268D+00 0.768D+00
 Gap=     0.504 Goal=   None    Shift=    0.000
 Gap=     0.263 Goal=   None    Shift=    0.000
 RMSDP=5.07D-06 MaxDP=6.77D-05 DE=-1.27D-06 OVMax= 2.48D-04

 Cycle   5  Pass 1  IDiag  1:
 E= -92.7096941008711     Delta-E=       -0.000000264335 Rises=F Damp=F
 DIIS: error= 3.20D-05 at cycle   5 NSaved=   5.
 NSaved= 5 IEnMin= 5 EnMin= -92.7096941008711     IErMin= 5 ErrMin= 3.20D-05
 ErrMax= 3.20D-05  0.00D+00 EMaxC= 1.00D-01 BMatC= 3.33D-08 BMatP= 8.48D-07
 IDIUse=1 WtCom= 1.00D+00 WtEn= 0.00D+00
 Coeff-Com:  0.818D-02-0.460D-01-0.146D+00-0.342D+00 0.153D+01
 Coeff:      0.818D-02-0.460D-01-0.146D+00-0.342D+00 0.153D+01
 Gap=     0.504 Goal=   None    Shift=    0.000
 Gap=     0.263 Goal=   None    Shift=    0.000
 RMSDP=4.23D-06 MaxDP=9.27D-05 DE=-2.64D-07 OVMax= 4.02D-04

 Cycle   6  Pass 1  IDiag  1:
 E= -92.7096941599187     Delta-E=       -0.000000059048 Rises=F Damp=F
 DIIS: error= 1.12D-05 at cycle   6 NSaved=   6.
 NSaved= 6 IEnMin= 6 EnMin= -92.7096941599187     IErMin= 6 ErrMin= 1.12D-05
 ErrMax= 1.12D-05  0.00D+00 EMaxC= 1.00D-01 BMatC= 6.05D-09 BMatP= 3.33D-08
 IDIUse=1 WtCom= 1.00D+00 WtEn= 0.00D+00
 Coeff-Com:  0.160D-02 0.165D-01 0.205D-01-0.318D-01-0.582D+00 0.157D+01
 Coeff:      0.160D-02 0.165D-01 0.205D-01-0.318D-01-0.582D+00 0.157D+01
 Gap=     0.504 Goal=   None    Shift=    0.000
 Gap=     0.263 Goal=   None    Shift=    0.000
 RMSDP=2.31D-06 MaxDP=4.54D-05 DE=-5.90D-08 OVMax= 2.23D-04

 Cycle   7  Pass 1  IDiag  1:
 E= -92.7096941719960     Delta-E=       -0.000000012077 Rises=F Damp=F
 DIIS: error= 3.79D-06 at cycle   7 NSaved=   7.
 NSaved= 7 IEnMin= 7 EnMin= -92.7096941719960     IErMin= 7 ErrMin= 3.79D-06
 ErrMax= 3.79D-06  0.00D+00 EMaxC= 1.00D-01 BMatC= 6.56D-10 BMatP= 6.05D-09
 IDIUse=1 WtCom= 1.00D+00 WtEn= 0.00D+00
 Coeff-Com: -0.146D-02-0.353D-02 0.702D-02 0.456D-01 0.137D+00-0.744D+00
 Coeff-Com:  0.156D+01
 Coeff:     -0.146D-02-0.353D-02 0.702D-02 0.456D-01 0.137D+00-0.744D+00
 Coeff:      0.156D+01
 Gap=     0.504 Goal=   None    Shift=    0.000
 Gap=     0.263 Goal=   None    Shift=    0.000
 RMSDP=5.92D-07 MaxDP=1.03D-05 DE=-1.21D-08 OVMax= 3.99D-05

 Cycle   8  Pass 1  IDiag  1:
 E= -92.7096941733662     Delta-E=       -0.000000001370 Rises=F Damp=F
 DIIS: error= 1.73D-06 at cycle   8 NSaved=   8.
 NSaved= 8 IEnMin= 8 EnMin= -92.7096941733662     IErMin= 8 ErrMin= 1.73D-06
 ErrMax= 1.73D-06  0.00D+00 EMaxC= 1.00D-01 BMatC= 1.61D-10 BMatP= 6.56D-10
 IDIUse=1 WtCom= 1.00D+00 WtEn= 0.00D+00
 Coeff-Com:  0.480D-03-0.487D-02-0.133D-01-0.213D-01 0.145D+00-0.946D-01
 Coeff-Com: -0.914D+00 0.190D+01
 Coeff:      0.480D-03-0.487D-02-0.133D-01-0.213D-01 0.145D+00-0.946D-01
 Coeff:     -0.914D+00 0.190D+01
 Gap=     0.504 Goal=   None    Shift=    0.000
 Gap=     0.263 Goal=   None    Shift=    0.000
 RMSDP=4.03D-07 MaxDP=5.99D-06 DE=-1.37D-09 OVMax= 2.17D-05

 Cycle   9  Pass 1  IDiag  1:
 E= -92.7096941737719     Delta-E=       -0.000000000406 Rises=F Damp=F
 DIIS: error= 3.46D-07 at cycle   9 NSaved=   9.
 NSaved= 9 IEnMin= 9 EnMin= -92.7096941737719     IErMin= 9 ErrMin= 3.46D-07
 ErrMax= 3.46D-07  0.00D+00 EMaxC= 1.00D-01 BMatC= 5.61D-12 BMatP= 1.61D-10
 IDIUse=1 WtCom= 1.00D+00 WtEn= 0.00D+00
 Coeff-Com:  0.841D-04 0.603D-03 0.516D-03-0.219D-02-0.262D-01 0.639D-01
 Coeff-Com: -0.747D-01-0.116D+00 0.115D+01
 Coeff:      0.841D-04 0.603D-03 0.516D-03-0.219D-02-0.262D-01 0.639D-01
 Coeff:     -0.747D-01-0.116D+00 0.115D+01
 Gap=     0.504 Goal=   None    Shift=    0.000
 Gap=     0.263 Goal=   None    Shift=    0.000
 RMSDP=8.51D-08 MaxDP=1.57D-06 DE=-4.06D-10 OVMax= 5.48D-06

 Cycle  10  Pass 1  IDiag  1:
 E= -92.7096941737828     Delta-E=       -0.000000000011 Rises=F Damp=F
 DIIS: error= 4.41D-08 at cycle  10 NSaved=  10.
 NSaved=10 IEnMin=10 EnMin= -92.7096941737828     IErMin=10 ErrMin= 4.41D-08
 ErrMax= 4.41D-08  0.00D+00 EMaxC= 1.00D-01 BMatC= 1.94D-13 BMatP= 5.61D-12
 IDIUse=1 WtCom= 1.00D+00 WtEn= 0.00D+00
 Coeff-Com: -0.163D-04 0.643D-04 0.181D-03 0.875D-03-0.439D-03-0.379D-02
 Coeff-Com:  0.361D-01-0.439D-01-0.129D+00 0.114D+01
 Coeff:     -0.163D-04 0.643D-04 0.181D-03 0.875D-03-0.439D-03-0.379D-02
 Coeff:      0.361D-01-0.439D-01-0.129D+00 0.114D+01
 Gap=     0.504 Goal=   None    Shift=    0.000
 Gap=     0.263 Goal=   None    Shift=    0.000
 RMSDP=6.00D-09 MaxDP=1.12D-07 DE=-1.09D-11 OVMax= 3.44D-07

 SCF Done:  E(UM062X) =  -92.7096941738     A.U. after   10 cycles
            NFock= 10  Conv=0.60D-08     -V/T= 2.0051
 <Sx>= 0.0000 <Sy>= 0.0000 <Sz>= 0.5000 <S**2>= 0.7652 S= 0.5075
 <L.S>= 0.000000000000E+00
 KE= 9.223702363594D+01 PE=-2.549453380438D+02 EE= 5.072852181900D+01
 Annihilation of the first spin contaminant:
 S**2 before annihilation     0.7652,   after     0.7502
 Leave Link  502 at Fri Sep 25 11:32:24 2020, MaxMem=   268435456 cpu:              12.6 elap:               1.7
 (Enter /applis/site/cecic/gaussian16/B.01/nehalem/g16/l701.exe)
 ... and contract with generalized density number  0.
 Compute integral first derivatives.
 Leave Link  701 at Fri Sep 25 11:32:24 2020, MaxMem=   268435456 cpu:               1.0 elap:               0.1
 (Enter /applis/site/cecic/gaussian16/B.01/nehalem/g16/l702.exe)
 L702 exits ... SP integral derivatives will be done elsewhere.
 Leave Link  702 at Fri Sep 25 11:32:24 2020, MaxMem=   268435456 cpu:               0.4 elap:               0.1
 (Enter /applis/site/cecic/gaussian16/B.01/nehalem/g16/l703.exe)
 Integral derivatives from FoFJK, PRISM(SPDF).
 Compute integral first derivatives, UseDBF=F ICtDFT=           0.
 Calling FoFJK, ICntrl=      2127 FMM=F ISym2X=0 I1Cent= 0 IOpClX= 1 NMat=1 NMatS=1 NMatT=0.
 FoFJK:  IHMeth= 1 ICntrl=    2127 DoSepK=F KAlg= 0 I1Cent=           0 FoldK=F
 IRaf=         0 NMat=       1 IRICut=       1 DoRegI=T DoRafI=F ISym2E= 0 IDoP0=0 IntGTp=1.
 FoFCou: FMM=F IPFlag=           0 FMFlag=      100000 FMFlg1=         800
         NFxFlg=           0 DoJE=F BraDBF=F KetDBF=F FulRan=T
         wScrn=  0.000000 ICntrl=      2127 IOpCl=  1 I1Cent=           0 NGrid=           0
         NMat0=    1 NMatS0=      1 NMatT0=    0 NMatD0=    1 NMtDS0=    0 NMtDT0=    0
 Symmetry not used in FoFCou.
 Leave Link  703 at Fri Sep 25 11:32:24 2020, MaxMem=   268435456 cpu:               4.0 elap:               0.5
 (Enter /applis/site/cecic/gaussian16/B.01/nehalem/g16/l716.exe)
 Dipole        = 1.64695329D-15 7.01344884D-16 7.21237222D-01
 -------------------------------------------------------------------
 Center     Atomic                   Forces (Hartrees/Bohr)
 Number     Number              X              Y              Z
 -------------------------------------------------------------------
      1        7           0.000000000    0.000000000    0.000602506
      2        6          -0.000000000   -0.000000000   -0.000602506
 -------------------------------------------------------------------
 Cartesian Forces:  Max     0.000602506 RMS     0.000347857
 Leave Link  716 at Fri Sep 25 11:32:25 2020, MaxMem=   268435456 cpu:               0.6 elap:               0.1
 (Enter /applis/site/cecic/gaussian16/B.01/nehalem/g16/l103.exe)

 GradGradGradGradGradGradGradGradGradGradGradGradGradGradGradGradGradGrad
 Berny optimization.
 Using GEDIIS/GDIIS optimizer.
 Red2BG is reusing G-inverse.
 Internal  Forces:  Max     0.000602506 RMS     0.000602506
 Search for a local minimum.
 Step number   2 out of a maximum of  100
 All quantities printed in internal units (Hartrees-Bohrs-Radians)
 RMS Force = .60251D-03 SwitMx=.10000D-02 MixMth= 2
 Mixed Optimization -- En-DIIS/RFO-DIIS
 Update second derivatives using D2CorX and points    1    2
 DE= -3.48D-05 DEPred=-3.25D-05 R= 1.07D+00
 TightC=F SS=  1.41D+00  RLast= 7.08D-03 DXNew= 5.0454D-01 2.1235D-02
 Trust test= 1.07D+00 RLast= 7.08D-03 DXMaxT set to 3.00D-01
 The second derivative matrix:
                          R1
           R1           1.21198
 ITU=  1  0
 Use linear search instead of GDIIS.
     Eigenvalues ---    1.21198
 RFO step:  Lambda= 0.00000000D+00 EMin= 1.21198363D+00
 Quartic linear search produced a step of  0.06928.
 Iteration  1 RMS(Cart)=  0.00034678 RMS(Int)=  0.00000000
 Iteration  2 RMS(Cart)=  0.00000000 RMS(Int)=  0.00000000
 ITry= 1 IFail=0 DXMaxC= 2.45D-04 DCOld= 1.00D+10 DXMaxT= 3.00D-01 DXLimC= 3.00D+00 Rises=F
 Variable       Old X    -DE/DX   Delta X   Delta X   Delta X     New X
                                 (Linear)    (Quad)   (Total)
    R1        2.17954  -0.00060  -0.00049   0.00000  -0.00049   2.17905
         Item               Value     Threshold  Converged?
 Maximum Force            0.000603     0.000450     NO 
 RMS     Force            0.000603     0.000300     NO 
 Maximum Displacement     0.000245     0.001800     YES
 RMS     Displacement     0.000347     0.001200     YES
 Predicted change in Energy=-1.497326D-07
 Lowest energy point so far.  Saving SCF results.
 GradGradGradGradGradGradGradGradGradGradGradGradGradGradGradGradGradGrad

 Leave Link  103 at Fri Sep 25 11:32:25 2020, MaxMem=   268435456 cpu:               1.0 elap:               0.2
 (Enter /applis/site/cecic/gaussian16/B.01/nehalem/g16/l202.exe)
                          Input orientation:                          
 ---------------------------------------------------------------------
 Center     Atomic      Atomic             Coordinates (Angstroms)
 Number     Number       Type             X           Y           Z
 ---------------------------------------------------------------------
      1          7           0        0.000000    0.000000    0.002003
      2          6           0        0.000000    0.000000    1.155107
 ---------------------------------------------------------------------
 Symmetry turned off by external request.
 Stoichiometry    CN(2)
 Framework group  C*V[C*(CN)]
 Deg. of freedom     1
 Full point group                 C*V     NOp   4
 Rotational constants (GHZ):           0.0000000          58.8165764          58.8165764
 Leave Link  202 at Fri Sep 25 11:32:25 2020, MaxMem=   268435456 cpu:               0.2 elap:               0.1
 (Enter /applis/site/cecic/gaussian16/B.01/nehalem/g16/l301.exe)
 Standard basis: CC-pVTZ (5D, 7F)
 Ernie: Thresh=  0.10000D-02 Tol=  0.10000D-05 Strict=F.
 Ernie:  6 primitive shells out of 52 were deleted.
    60 basis functions,   104 primitive gaussians,    70 cartesian basis functions
     7 alpha electrons        6 beta electrons
       nuclear repulsion energy        19.2744353220 Hartrees.
 IExCor= 4336 DFT=T Ex+Corr=M062X ExCW=0 ScaHFX=  0.540000
 ScaDFX=  1.000000  1.000000  1.000000  1.000000 ScalE2=  1.000000  1.000000
 IRadAn=      5 IRanWt=     -1 IRanGd=            0 ICorTp=0 IEmpDi=  4
 NAtoms=    2 NActive=    2 NUniq=    2 SFac= 1.00D+00 NAtFMM=   60 NAOKFM=F Big=F
 Integral buffers will be    131072 words long.
 Raffenetti 2 integral format.
 Two-electron integral symmetry is turned off.
 Leave Link  301 at Fri Sep 25 11:32:25 2020, MaxMem=   268435456 cpu:               0.7 elap:               0.1
 (Enter /applis/site/cecic/gaussian16/B.01/nehalem/g16/l302.exe)
 NPDir=0 NMtPBC=     1 NCelOv=     1 NCel=       1 NClECP=     1 NCelD=      1
         NCelK=      1 NCelE2=     1 NClLst=     1 CellRange=     0.0.
 One-electron integrals computed using PRISM.
 NBasis=    60 RedAO= T EigKep=  1.93D-03  NBF=    60
 NBsUse=    60 1.00D-06 EigRej= -1.00D+00 NBFU=    60
 Precomputing XC quadrature grid using
 IXCGrd= 4 IRadAn=           5 IRanWt=          -1 IRanGd=           0 AccXCQ= 0.00D+00.
 Generated NRdTot=       0 NPtTot=           0 NUsed=           0 NTot=          32
 NSgBfM=    70    70    70    70    70 MxSgAt=     2 MxSgA2=     2.
 Leave Link  302 at Fri Sep 25 11:32:25 2020, MaxMem=   268435456 cpu:               1.2 elap:               0.2
 (Enter /applis/site/cecic/gaussian16/B.01/nehalem/g16/l303.exe)
 DipDrv:  MaxL=1.
 Leave Link  303 at Fri Sep 25 11:32:25 2020, MaxMem=   268435456 cpu:               0.5 elap:               0.1
 (Enter /applis/site/cecic/gaussian16/B.01/nehalem/g16/l401.exe)
 Initial guess from the checkpoint file:  "input.chk"
 B after Tr=     0.000000    0.000000    0.000019
         Rot=    1.000000    0.000000    0.000000    0.000000 Ang=   0.00 deg.
 Guess basis will be translated and rotated to current coordinates.
 JPrj=2 DoOrth=T DoCkMO=T.
 Initial guess <Sx>= 0.0000 <Sy>= 0.0000 <Sz>= 0.5000 <S**2>= 0.7652 S= 0.5075
 Leave Link  401 at Fri Sep 25 11:32:25 2020, MaxMem=   268435456 cpu:               1.1 elap:               0.2
 (Enter /applis/site/cecic/gaussian16/B.01/nehalem/g16/l502.exe)
 Keep R1 and R2 ints in memory in canonical form, NReq=10503886.
 FoFCou: FMM=F IPFlag=           0 FMFlag=           0 FMFlg1=           0
         NFxFlg=           0 DoJE=F BraDBF=F KetDBF=F FulRan=T
         wScrn=  0.000000 ICntrl=       600 IOpCl=  0 I1Cent=           0 NGrid=           0
         NMat0=    1 NMatS0=   1830 NMatT0=    0 NMatD0=    1 NMtDS0=    0 NMtDT0=    0
 Symmetry not used in FoFCou.
 Two-electron integral symmetry not used.
 UHF open shell SCF:
 Using DIIS extrapolation, IDIIS=  1040.
 NGot=   268435456 LenX=   265073800 LenY=   265068459
 Requested convergence on RMS density matrix=1.00D-08 within 128 cycles.
 Requested convergence on MAX density matrix=1.00D-06.
 Requested convergence on             energy=1.00D-06.
 No special actions if energy rises.

 Cycle   1  Pass 1  IDiag  1:
 E= -92.7096942709951    
 DIIS: error= 3.14D-05 at cycle   1 NSaved=   1.
 NSaved= 1 IEnMin= 1 EnMin= -92.7096942709951     IErMin= 1 ErrMin= 3.14D-05
 ErrMax= 3.14D-05  0.00D+00 EMaxC= 1.00D-01 BMatC= 2.14D-07 BMatP= 2.14D-07
 IDIUse=1 WtCom= 1.00D+00 WtEn= 0.00D+00
 Coeff-Com:  0.100D+01
 Coeff:      0.100D+01
 Gap=     2.662 Goal=   None    Shift=    0.000
 Gap=     1.999 Goal=   None    Shift=    0.000
 RMSDP=3.42D-06 MaxDP=5.31D-05              OVMax= 1.25D-04

 Cycle   2  Pass 1  IDiag  1:
 E= -92.7096943068218     Delta-E=       -0.000000035827 Rises=F Damp=F
 DIIS: error= 2.03D-05 at cycle   2 NSaved=   2.
 NSaved= 2 IEnMin= 2 EnMin= -92.7096943068218     IErMin= 2 ErrMin= 2.03D-05
 ErrMax= 2.03D-05  0.00D+00 EMaxC= 1.00D-01 BMatC= 6.94D-08 BMatP= 2.14D-07
 IDIUse=1 WtCom= 1.00D+00 WtEn= 0.00D+00
 Coeff-Com:  0.328D+00 0.672D+00
 Coeff:      0.328D+00 0.672D+00
 Gap=     0.505 Goal=   None    Shift=    0.000
 Gap=     0.263 Goal=   None    Shift=    0.000
 RMSDP=1.48D-06 MaxDP=2.09D-05 DE=-3.58D-08 OVMax= 5.72D-05

 Cycle   3  Pass 1  IDiag  1:
 E= -92.7096943139117     Delta-E=       -0.000000007090 Rises=F Damp=F
 DIIS: error= 1.80D-05 at cycle   3 NSaved=   3.
 NSaved= 3 IEnMin= 3 EnMin= -92.7096943139117     IErMin= 3 ErrMin= 1.80D-05
 ErrMax= 1.80D-05  0.00D+00 EMaxC= 1.00D-01 BMatC= 3.00D-08 BMatP= 6.94D-08
 IDIUse=1 WtCom= 1.00D+00 WtEn= 0.00D+00
 Coeff-Com:  0.105D+00 0.394D+00 0.501D+00
 Coeff:      0.105D+00 0.394D+00 0.501D+00
 Gap=     0.505 Goal=   None    Shift=    0.000
 Gap=     0.263 Goal=   None    Shift=    0.000
 RMSDP=8.33D-07 MaxDP=1.54D-05 DE=-7.09D-09 OVMax= 5.59D-05

 Cycle   4  Pass 1  IDiag  1:
 E= -92.7096943199742     Delta-E=       -0.000000006062 Rises=F Damp=F
 DIIS: error= 6.42D-06 at cycle   4 NSaved=   4.
 NSaved= 4 IEnMin= 4 EnMin= -92.7096943199742     IErMin= 4 ErrMin= 6.42D-06
 ErrMax= 6.42D-06  0.00D+00 EMaxC= 1.00D-01 BMatC= 4.06D-09 BMatP= 3.00D-08
 IDIUse=1 WtCom= 1.00D+00 WtEn= 0.00D+00
 Coeff-Com: -0.281D-01-0.742D-02 0.268D+00 0.767D+00
 Coeff:     -0.281D-01-0.742D-02 0.268D+00 0.767D+00
 Gap=     0.505 Goal=   None    Shift=    0.000
 Gap=     0.263 Goal=   None    Shift=    0.000
 RMSDP=3.49D-07 MaxDP=4.65D-06 DE=-6.06D-09 OVMax= 1.69D-05

 Cycle   5  Pass 1  IDiag  1:
 E= -92.7096943212298     Delta-E=       -0.000000001256 Rises=F Damp=F
 DIIS: error= 2.17D-06 at cycle   5 NSaved=   5.
 NSaved= 5 IEnMin= 5 EnMin= -92.7096943212298     IErMin= 5 ErrMin= 2.17D-06
 ErrMax= 2.17D-06  0.00D+00 EMaxC= 1.00D-01 BMatC= 1.56D-10 BMatP= 4.06D-09
 IDIUse=1 WtCom= 1.00D+00 WtEn= 0.00D+00
 Coeff-Com:  0.797D-02-0.456D-01-0.144D+00-0.337D+00 0.152D+01
 Coeff:      0.797D-02-0.456D-01-0.144D+00-0.337D+00 0.152D+01
 Gap=     0.505 Goal=   None    Shift=    0.000
 Gap=     0.263 Goal=   None    Shift=    0.000
 RMSDP=2.88D-07 MaxDP=6.30D-06 DE=-1.26D-09 OVMax= 2.72D-05

 Cycle   6  Pass 1  IDiag  1:
 E= -92.7096943215034     Delta-E=       -0.000000000274 Rises=F Damp=F
 DIIS: error= 7.63D-07 at cycle   6 NSaved=   6.
 NSaved= 6 IEnMin= 6 EnMin= -92.7096943215034     IErMin= 6 ErrMin= 7.63D-07
 ErrMax= 7.63D-07  0.00D+00 EMaxC= 1.00D-01 BMatC= 2.81D-11 BMatP= 1.56D-10
 IDIUse=1 WtCom= 1.00D+00 WtEn= 0.00D+00
 Coeff-Com:  0.161D-02 0.162D-01 0.197D-01-0.321D-01-0.577D+00 0.157D+01
 Coeff:      0.161D-02 0.162D-01 0.197D-01-0.321D-01-0.577D+00 0.157D+01
 Gap=     0.505 Goal=   None    Shift=    0.000
 Gap=     0.263 Goal=   None    Shift=    0.000
 RMSDP=1.57D-07 MaxDP=3.08D-06 DE=-2.74D-10 OVMax= 1.51D-05

 Cycle   7  Pass 1  IDiag  1:
 E= -92.7096943215591     Delta-E=       -0.000000000056 Rises=F Damp=F
 DIIS: error= 2.41D-07 at cycle   7 NSaved=   7.
 NSaved= 7 IEnMin= 7 EnMin= -92.7096943215591     IErMin= 7 ErrMin= 2.41D-07
 ErrMax= 2.41D-07  0.00D+00 EMaxC= 1.00D-01 BMatC= 3.07D-12 BMatP= 2.81D-11
 IDIUse=1 WtCom= 1.00D+00 WtEn= 0.00D+00
 Coeff-Com: -0.142D-02-0.312D-02 0.748D-02 0.445D-01 0.124D+00-0.717D+00
 Coeff-Com:  0.155D+01
 Coeff:     -0.142D-02-0.312D-02 0.748D-02 0.445D-01 0.124D+00-0.717D+00
 Coeff:      0.155D+01
 Gap=     0.505 Goal=   None    Shift=    0.000
 Gap=     0.263 Goal=   None    Shift=    0.000
 RMSDP=4.07D-08 MaxDP=7.18D-07 DE=-5.57D-11 OVMax= 2.80D-06

 Cycle   8  Pass 1  IDiag  1:
 E= -92.7096943215654     Delta-E=       -0.000000000006 Rises=F Damp=F
 DIIS: error= 1.09D-07 at cycle   8 NSaved=   8.
 NSaved= 8 IEnMin= 8 EnMin= -92.7096943215654     IErMin= 8 ErrMin= 1.09D-07
 ErrMax= 1.09D-07  0.00D+00 EMaxC= 1.00D-01 BMatC= 7.57D-13 BMatP= 3.07D-12
 IDIUse=1 WtCom= 1.00D+00 WtEn= 0.00D+00
 Coeff-Com:  0.456D-03-0.490D-02-0.132D-01-0.205D-01 0.148D+00-0.973D-01
 Coeff-Com: -0.924D+00 0.191D+01
 Coeff:      0.456D-03-0.490D-02-0.132D-01-0.205D-01 0.148D+00-0.973D-01
 Coeff:     -0.924D+00 0.191D+01
 Gap=     0.505 Goal=   None    Shift=    0.000
 Gap=     0.263 Goal=   None    Shift=    0.000
 RMSDP=2.74D-08 MaxDP=4.08D-07 DE=-6.30D-12 OVMax= 1.48D-06

 Cycle   9  Pass 1  IDiag  1:
 E= -92.7096943215674     Delta-E=       -0.000000000002 Rises=F Damp=F
 DIIS: error= 2.25D-08 at cycle   9 NSaved=   9.
 NSaved= 9 IEnMin= 9 EnMin= -92.7096943215674     IErMin= 9 ErrMin= 2.25D-08
 ErrMax= 2.25D-08  0.00D+00 EMaxC= 1.00D-01 BMatC= 2.70D-14 BMatP= 7.57D-13
 IDIUse=1 WtCom= 1.00D+00 WtEn= 0.00D+00
 Coeff-Com:  0.849D-04 0.579D-03 0.468D-03-0.226D-02-0.255D-01 0.630D-01
 Coeff-Com: -0.715D-01-0.126D+00 0.116D+01
 Coeff:      0.849D-04 0.579D-03 0.468D-03-0.226D-02-0.255D-01 0.630D-01
 Coeff:     -0.715D-01-0.126D+00 0.116D+01
 Gap=     0.505 Goal=   None    Shift=    0.000
 Gap=     0.263 Goal=   None    Shift=    0.000
 RMSDP=5.85D-09 MaxDP=1.06D-07 DE=-1.93D-12 OVMax= 3.67D-07

 SCF Done:  E(UM062X) =  -92.7096943216     A.U. after    9 cycles
            NFock=  9  Conv=0.59D-08     -V/T= 2.0051
 <Sx>= 0.0000 <Sy>= 0.0000 <Sz>= 0.5000 <S**2>= 0.7651 S= 0.5075
 <L.S>= 0.000000000000E+00
 KE= 9.223835859687D+01 PE=-2.549552150984D+02 EE= 5.073272685792D+01
 Annihilation of the first spin contaminant:
 S**2 before annihilation     0.7651,   after     0.7502
 Leave Link  502 at Fri Sep 25 11:32:27 2020, MaxMem=   268435456 cpu:              12.1 elap:               1.6
 (Enter /applis/site/cecic/gaussian16/B.01/nehalem/g16/l701.exe)
 ... and contract with generalized density number  0.
 Compute integral first derivatives.
 Leave Link  701 at Fri Sep 25 11:32:28 2020, MaxMem=   268435456 cpu:               3.0 elap:               0.5
 (Enter /applis/site/cecic/gaussian16/B.01/nehalem/g16/l702.exe)
 L702 exits ... SP integral derivatives will be done elsewhere.
 Leave Link  702 at Fri Sep 25 11:32:28 2020, MaxMem=   268435456 cpu:               0.4 elap:               0.1
 (Enter /applis/site/cecic/gaussian16/B.01/nehalem/g16/l703.exe)
 Integral derivatives from FoFJK, PRISM(SPDF).
 Compute integral first derivatives, UseDBF=F ICtDFT=           0.
 Calling FoFJK, ICntrl=      2127 FMM=F ISym2X=0 I1Cent= 0 IOpClX= 1 NMat=1 NMatS=1 NMatT=0.
 FoFJK:  IHMeth= 1 ICntrl=    2127 DoSepK=F KAlg= 0 I1Cent=           0 FoldK=F
 IRaf=         0 NMat=       1 IRICut=       1 DoRegI=T DoRafI=F ISym2E= 0 IDoP0=0 IntGTp=1.
 FoFCou: FMM=F IPFlag=           0 FMFlag=      100000 FMFlg1=         800
         NFxFlg=           0 DoJE=F BraDBF=F KetDBF=F FulRan=T
         wScrn=  0.000000 ICntrl=      2127 IOpCl=  1 I1Cent=           0 NGrid=           0
         NMat0=    1 NMatS0=      1 NMatT0=    0 NMatD0=    1 NMtDS0=    0 NMtDT0=    0
 Symmetry not used in FoFCou.
 Leave Link  703 at Fri Sep 25 11:32:28 2020, MaxMem=   268435456 cpu:               3.8 elap:               0.5
 (Enter /applis/site/cecic/gaussian16/B.01/nehalem/g16/l716.exe)
 Dipole        = 3.25925400D-15-2.31952327D-15 7.21384579D-01
 -------------------------------------------------------------------
 Center     Atomic                   Forces (Hartrees/Bohr)
 Number     Number              X              Y              Z
 -------------------------------------------------------------------
      1        7          -0.000000000   -0.000000000    0.000000010
      2        6           0.000000000    0.000000000   -0.000000010
 -------------------------------------------------------------------
 Cartesian Forces:  Max     0.000000010 RMS     0.000000006
 Leave Link  716 at Fri Sep 25 11:32:28 2020, MaxMem=   268435456 cpu:               0.3 elap:               0.1
 (Enter /applis/site/cecic/gaussian16/B.01/nehalem/g16/l103.exe)

 GradGradGradGradGradGradGradGradGradGradGradGradGradGradGradGradGradGrad
 Berny optimization.
 Using GEDIIS/GDIIS optimizer.
 Red2BG is reusing G-inverse.
 Internal  Forces:  Max     0.000000010 RMS     0.000000010
 Search for a local minimum.
 Step number   3 out of a maximum of  100
 All quantities printed in internal units (Hartrees-Bohrs-Radians)
 RMS Force = .99087D-08 SwitMx=.10000D-02 MixMth= 2
 Mixed Optimization -- En-DIIS/RFO-DIIS
 Swapping is turned off.
 Update second derivatives using D2CorX and points    3
 DE= -1.48D-07 DEPred=-1.50D-07 R= 9.87D-01
 Trust test= 9.87D-01 RLast= 4.90D-04 DXMaxT set to 3.00D-01
 The second derivative matrix:
                          R1
           R1           1.21198
 ITU=  0  1
     Eigenvalues ---    1.21198
 En-DIIS/RFO-DIIS/Sim-DIIS IScMMF=       -3 using points:     3    2
 RFO step:  Lambda=-1.11022302D-16.
 NNeg= 0 NGDIIS= 2 SimSw=  2.50D-03 Rises=F DC= -1.48D-07 SmlDif=  1.00D-05
 NRisDI= 0 DoIntr=F SqrtH=F CThrHd= 10.0 CDAdj=  3.0
 RMS Error=  0.8175590531D-08 NUsed= 2 OKEnD=F EnDIS=F
 InvSVX:  RCond= 6.18D-08 Info=           0 Equed=N FErr=  9.99D-16 BErr=  9.94D-17
 DIIS inversion failure, remove point   2.
 Use linear search instead of GDIIS.
 RFO step:  Lambda= 0.00000000D+00 EMin= 1.21198363D+00
 Quartic linear search produced a step of  0.00002.
 Iteration  1 RMS(Cart)=  0.00000001 RMS(Int)=  0.00000000
 ITry= 1 IFail=0 DXMaxC= 4.03D-09 DCOld= 1.00D+10 DXMaxT= 3.00D-01 DXLimC= 3.00D+00 Rises=F
 Variable       Old X    -DE/DX   Delta X   Delta X   Delta X     New X
                                 (Linear)    (Quad)   (Total)
    R1        2.17905  -0.00000  -0.00000   0.00000  -0.00000   2.17905
         Item               Value     Threshold  Converged?
 Maximum Force            0.000000     0.000450     YES
 RMS     Force            0.000000     0.000300     YES
 Maximum Displacement     0.000000     0.001800     YES
 RMS     Displacement     0.000000     0.001200     YES
 Predicted change in Energy=-4.049633D-17
 Optimization completed.
    -- Stationary point found.
                           ----------------------------
                           !   Optimized Parameters   !
                           ! (Angstroms and Degrees)  !
 --------------------------                            --------------------------
 ! Name  Definition              Value          Derivative Info.                !
 --------------------------------------------------------------------------------
 ! R1    R(1,2)                  1.1531         -DE/DX =    0.0                 !
 --------------------------------------------------------------------------------
 Lowest energy point so far.  Saving SCF results.
 Largest change from initial coordinates is atom    2       0.002 Angstoms.
 GradGradGradGradGradGradGradGradGradGradGradGradGradGradGradGradGradGrad

 Leave Link  103 at Fri Sep 25 11:32:28 2020, MaxMem=   268435456 cpu:               0.8 elap:               0.1
 (Enter /applis/site/cecic/gaussian16/B.01/nehalem/g16/l202.exe)
                          Input orientation:                          
 ---------------------------------------------------------------------
 Center     Atomic      Atomic             Coordinates (Angstroms)
 Number     Number       Type             X           Y           Z
 ---------------------------------------------------------------------
      1          7           0        0.000000    0.000000    0.002003
      2          6           0        0.000000    0.000000    1.155107
 ---------------------------------------------------------------------
 Symmetry turned off by external request.
 Stoichiometry    CN(2)
 Framework group  C*V[C*(CN)]
 Deg. of freedom     1
 Full point group                 C*V     NOp   4
 Rotational constants (GHZ):           0.0000000          58.8165764          58.8165764
 Leave Link  202 at Fri Sep 25 11:32:29 2020, MaxMem=   268435456 cpu:               0.0 elap:               0.0
 (Enter /applis/site/cecic/gaussian16/B.01/nehalem/g16/l601.exe)
 Copying SCF densities to generalized density rwf, IOpCl= 1 IROHF=0.

 **********************************************************************

            Population analysis using the SCF Density.

 **********************************************************************

 Alpha  occ. eigenvalues --  -14.80756 -10.65800  -1.06836  -0.58171  -0.47258
 Alpha  occ. eigenvalues --   -0.46149  -0.46149
 Alpha virt. eigenvalues --    0.04314   0.04314   0.21076   0.32272   0.33282
 Alpha virt. eigenvalues --    0.33282   0.49679   0.57891   0.57891   0.65782
 Alpha virt. eigenvalues --    0.65782   0.67204   0.87716   0.87716   0.94089
 Alpha virt. eigenvalues --    1.21559   1.21559   1.33870   1.57115   1.57115
 Alpha virt. eigenvalues --    1.79814   2.00962   2.00962   2.24471   2.61766
 Alpha virt. eigenvalues --    2.61766   2.73423   2.73423   2.77600   2.81859
 Alpha virt. eigenvalues --    2.81859   2.91851   2.91851   2.96688   2.96688
 Alpha virt. eigenvalues --    3.11975   3.42115   3.42115   3.94896   3.94896
 Alpha virt. eigenvalues --    3.95717   4.42145   4.42145   4.57981   4.57982
 Alpha virt. eigenvalues --    4.82482   4.82482   4.99044   5.35878   5.52103
 Alpha virt. eigenvalues --    5.52103   6.06227  12.75147
  Beta  occ. eigenvalues --  -14.80633 -10.64435  -1.04718  -0.49881  -0.44571
  Beta  occ. eigenvalues --   -0.44571
  Beta virt. eigenvalues --   -0.18270   0.06103   0.06103   0.17201   0.31013
  Beta virt. eigenvalues --    0.32191   0.32191   0.50149   0.57192   0.57192
  Beta virt. eigenvalues --    0.66038   0.66038   0.70369   0.87019   0.87019
  Beta virt. eigenvalues --    0.92945   1.21078   1.21078   1.31316   1.55825
  Beta virt. eigenvalues --    1.55825   1.81777   2.02932   2.02932   2.27459
  Beta virt. eigenvalues --    2.62847   2.62847   2.73656   2.73656   2.77794
  Beta virt. eigenvalues --    2.85400   2.85400   2.96010   2.96011   2.97199
  Beta virt. eigenvalues --    2.97199   3.17374   3.40338   3.40338   3.93466
  Beta virt. eigenvalues --    3.93466   3.95739   4.40141   4.40141   4.55990
  Beta virt. eigenvalues --    4.55990   4.82451   4.82451   5.01555   5.37118
  Beta virt. eigenvalues --    5.50094   5.50094   6.06277  12.71437
          Condensed to atoms (all electrons):
               1          2
     1  N    6.146664   0.886083
     2  C    0.886083   5.081170
          Atomic-Atomic Spin Densities.
               1          2
     1  N    0.000605  -0.026940
     2  C   -0.026940   1.053274
 Mulliken charges and spin densities:
               1          2
     1  N   -0.032747  -0.026335
     2  C    0.032747   1.026335
 Sum of Mulliken charges =  -0.00000   1.00000
 Mulliken charges and spin densities with hydrogens summed into heavy atoms:
               1          2
     1  N   -0.032747  -0.026335
     2  C    0.032747   1.026335
 Electronic spatial extent (au):  <R**2>=             51.0747
 Charge=             -0.0000 electrons
 Dipole moment (field-independent basis, Debye):
    X=              0.0000    Y=             -0.0000    Z=              1.8336  Tot=              1.8336
 Quadrupole moment (field-independent basis, Debye-Ang):
   XX=            -10.9670   YY=            -10.9670   ZZ=             -8.3105
   XY=              0.0000   XZ=              0.0000   YZ=              0.0000
 Traceless Quadrupole moment (field-independent basis, Debye-Ang):
   XX=             -0.8855   YY=             -0.8855   ZZ=              1.7710
   XY=              0.0000   XZ=              0.0000   YZ=              0.0000
 Octapole moment (field-independent basis, Debye-Ang**2):
  XXX=              0.0000  YYY=              0.0000  ZZZ=            -13.7051  XYY=              0.0000
  XXY=              0.0000  XXZ=             -5.9760  XZZ=              0.0000  YZZ=             -0.0000
  YYZ=             -5.9760  XYZ=              0.0000
 Hexadecapole moment (field-independent basis, Debye-Ang**3):
 XXXX=            -10.9412 YYYY=            -10.9412 ZZZZ=            -46.1860 XXXY=              0.0000
 XXXZ=              0.0000 YYYX=              0.0000 YYYZ=              0.0000 ZZZX=             -0.0000
 ZZZY=             -0.0000 XXYY=             -3.6471 XXZZ=            -10.2880 YYZZ=            -10.2880
 XXYZ=              0.0000 YYXZ=              0.0000 ZZXY=              0.0000
 N-N= 1.927443532203D+01 E-N=-2.549552150186D+02  KE= 9.223835859687D+01
                          Isotropic Fermi Contact Couplings
        Atom                 a.u.       MegaHertz       Gauss      10(-4) cm-1
     1  N(14)             -0.04484     -14.48714      -5.16937      -4.83239
     2  C(13)              0.78285     880.06845     314.03031     293.55924
 --------------------------------------------------------
       Center         ----  Spin Dipole Couplings  ----
                      3XX-RR        3YY-RR        3ZZ-RR
 --------------------------------------------------------
     1   Atom       -0.454372     -0.454372      0.908743
     2   Atom       -0.398329     -0.398329      0.796657
 --------------------------------------------------------
                        XY            XZ            YZ
 --------------------------------------------------------
     1   Atom        0.000000      0.000000     -0.000000
     2   Atom       -0.000000     -0.000000      0.000000
 --------------------------------------------------------


 ---------------------------------------------------------------------------------
              Anisotropic Spin Dipole Couplings in Principal Axis System
 ---------------------------------------------------------------------------------

       Atom             a.u.   MegaHertz   Gauss  10(-4) cm-1        Axes

              Baa    -0.4544   -17.524    -6.253    -5.845  0.9940 -0.1090 -0.0000
     1 N(14)  Bbb    -0.4544   -17.524    -6.253    -5.845  0.1090  0.9940 -0.0000
              Bcc     0.9087    35.048    12.506    11.691  0.0000 -0.0000  1.0000
 
              Baa    -0.3983   -53.452   -19.073   -17.830  0.9514  0.3078 -0.0000
     2 C(13)  Bbb    -0.3983   -53.452   -19.073   -17.830 -0.3078  0.9514 -0.0000
              Bcc     0.7967   106.904    38.146    35.659 -0.0000  0.0000  1.0000
 

 ---------------------------------------------------------------------------------

 No NMR shielding tensors so no spin-rotation constants.
 Leave Link  601 at Fri Sep 25 11:32:29 2020, MaxMem=   268435456 cpu:               1.9 elap:               0.3
 (Enter /applis/site/cecic/gaussian16/B.01/nehalem/g16/l9999.exe)
 B after Tr=     0.000000    0.000000   -0.000291
         Rot=    1.000000    0.000000    0.000000    0.000000 Ang=   0.00 deg.
 Final structure in terms of initial Z-matrix:
 N
 C,1,B1
      Variables:
 B1=1.15310475
 1\1\GINC-DAHU112\FOpt\UM062X\CC-pVTZ\C1N1(2)\TINACCIL\25-Sep-2020\0\\#
 P M062X/cc-pvtz nosymm opt(noeigentest) optcyc=120 freq\\Title\\0,2\N,
 0.,0.,0.0020026267\C,0.,0.,1.1551073733\\Version=ES64L-G16RevB.01\HF=-
 92.7096943\S2=0.765142\S2-1=0.\S2A=0.750156\RMSD=5.854e-09\RMSF=5.721e
 -09\Dipole=0.,0.,0.7213846\Quadrupole=-0.6583427,-0.6583427,1.3166854,
 0.,0.,0.\PG=C*V [C*(C1N1)]\\@


 TO DRY ONE'S EYES AND LAUGH AT A FALL
 AND BAFFLED, GET UP AND BEGIN AGAIN.
           R. BROWNING
 Leave Link 9999 at Fri Sep 25 11:32:29 2020, MaxMem=   268435456 cpu:               0.7 elap:               0.1
 Job cpu time:       0 days  0 hours  1 minutes 25.1 seconds.
 Elapsed time:       0 days  0 hours  0 minutes 12.7 seconds.
 File lengths (MBytes):  RWF=     15 Int=      0 D2E=      0 Chk=      2 Scr=      1
 Normal termination of Gaussian 16 at Fri Sep 25 11:32:29 2020.
 (Enter /applis/site/cecic/gaussian16/B.01/nehalem/g16/l1.exe)
 Link1:  Proceeding to internal job step number  2.
 -------------------------------------------------------------------
 #P Geom=AllCheck Guess=TCheck SCRF=Check GenChk UM062X/CC-pVTZ Freq
 -------------------------------------------------------------------
 1/6=120,10=4,11=1,29=7,30=1,38=1,40=1/1,3;
 2/12=2,15=1,40=1/2;
 3/5=16,6=1,11=2,14=-4,25=1,30=1,70=2,71=2,74=-55,116=2,140=1/1,2,3;
 4/5=101/1;
 5/5=2,38=6,98=1/2;
 8/6=4,10=90,11=11/1;
 11/6=1,8=1,9=11,15=111,16=1,31=1/1,2,10;
 10/6=1,31=1/2;
 6/7=2,8=2,9=2,10=2,28=1/1;
 7/8=1,10=1,25=1,30=1/1,2,3,16;
 1/6=120,10=4,11=1,30=1/3;
 99//99;
 Leave Link    1 at Fri Sep 25 11:32:29 2020, MaxMem=   268435456 cpu:               0.3 elap:               0.0
 (Enter /applis/site/cecic/gaussian16/B.01/nehalem/g16/l101.exe)
 Structure from the checkpoint file:  "input.chk"
 -----
 Title
 -----
 Charge =  0 Multiplicity = 2
 Redundant internal coordinates found in file.  (old form).
 N,0,0.,0.,0.0020026267
 C,0,0.,0.,1.1551073733
 Recover connectivity data from disk.
 ITRead=  0  0
 MicOpt= -1 -1
 NAtoms=      2 NQM=        2 NQMF=       0 NMMI=      0 NMMIF=      0
                NMic=       0 NMicF=      0.
                    Isotopes and Nuclear Properties:
 (Nuclear quadrupole moments (NQMom) in fm**2, nuclear magnetic moments (NMagM)
  in nuclear magnetons)

  Atom         1           2
 IAtWgt=          14          12
 AtmWgt=  14.0030740  12.0000000
 NucSpn=           2           0
 AtZEff=   4.5500000   3.6000000
 NQMom=    2.0440000   0.0000000
 NMagM=    0.4037610   0.0000000
 AtZNuc=   7.0000000   6.0000000
 Leave Link  101 at Fri Sep 25 11:32:29 2020, MaxMem=   268435456 cpu:               2.0 elap:               0.3
 (Enter /applis/site/cecic/gaussian16/B.01/nehalem/g16/l103.exe)

 GradGradGradGradGradGradGradGradGradGradGradGradGradGradGradGradGradGrad
 Berny optimization.
 Initialization pass.
                           ----------------------------
                           !    Initial Parameters    !
                           ! (Angstroms and Degrees)  !
 --------------------------                            --------------------------
 ! Name  Definition              Value          Derivative Info.                !
 --------------------------------------------------------------------------------
 ! R1    R(1,2)                  1.1531         calculate D2E/DX2 analytically  !
 --------------------------------------------------------------------------------
 Trust Radius=3.00D-01 FncErr=1.00D-07 GrdErr=1.00D-07 EigMax=2.50D+02 EigMin=1.00D-04
 Number of steps in this run=      2 maximum allowed number of steps=      2.
 GradGradGradGradGradGradGradGradGradGradGradGradGradGradGradGradGradGrad

 Leave Link  103 at Fri Sep 25 11:32:29 2020, MaxMem=   268435456 cpu:               0.2 elap:               0.1
 (Enter /applis/site/cecic/gaussian16/B.01/nehalem/g16/l202.exe)
                          Input orientation:                          
 ---------------------------------------------------------------------
 Center     Atomic      Atomic             Coordinates (Angstroms)
 Number     Number       Type             X           Y           Z
 ---------------------------------------------------------------------
      1          7           0        0.000000    0.000000    0.002003
      2          6           0        0.000000    0.000000    1.155107
 ---------------------------------------------------------------------
 Symmetry turned off by external request.
 Stoichiometry    CN(2)
 Framework group  C*V[C*(CN)]
 Deg. of freedom     1
 Full point group                 C*V     NOp   4
 Rotational constants (GHZ):           0.0000000          58.8165764          58.8165764
 Leave Link  202 at Fri Sep 25 11:32:29 2020, MaxMem=   268435456 cpu:               0.2 elap:               0.1
 (Enter /applis/site/cecic/gaussian16/B.01/nehalem/g16/l301.exe)
 Standard basis: CC-pVTZ (5D, 7F)
 Ernie: Thresh=  0.10000D-02 Tol=  0.10000D-05 Strict=F.
 Ernie:  6 primitive shells out of 52 were deleted.
    60 basis functions,   104 primitive gaussians,    70 cartesian basis functions
     7 alpha electrons        6 beta electrons
       nuclear repulsion energy        19.2744353220 Hartrees.
 IExCor= 4336 DFT=T Ex+Corr=M062X ExCW=0 ScaHFX=  0.540000
 ScaDFX=  1.000000  1.000000  1.000000  1.000000 ScalE2=  1.000000  1.000000
 IRadAn=      5 IRanWt=     -1 IRanGd=            0 ICorTp=0 IEmpDi=  4
 NAtoms=    2 NActive=    2 NUniq=    2 SFac= 1.00D+00 NAtFMM=   60 NAOKFM=F Big=F
 Integral buffers will be    131072 words long.
 Raffenetti 2 integral format.
 Two-electron integral symmetry is turned off.
 Leave Link  301 at Fri Sep 25 11:32:30 2020, MaxMem=   268435456 cpu:               0.8 elap:               0.1
 (Enter /applis/site/cecic/gaussian16/B.01/nehalem/g16/l302.exe)
 NPDir=0 NMtPBC=     1 NCelOv=     1 NCel=       1 NClECP=     1 NCelD=      1
         NCelK=      1 NCelE2=     1 NClLst=     1 CellRange=     0.0.
 One-electron integrals computed using PRISM.
 NBasis=    60 RedAO= T EigKep=  1.93D-03  NBF=    60
 NBsUse=    60 1.00D-06 EigRej= -1.00D+00 NBFU=    60
 Precomputing XC quadrature grid using
 IXCGrd= 4 IRadAn=           5 IRanWt=          -1 IRanGd=           0 AccXCQ= 0.00D+00.
 Generated NRdTot=       0 NPtTot=           0 NUsed=           0 NTot=          32
 NSgBfM=    70    70    70    70    70 MxSgAt=     2 MxSgA2=     2.
[...]
 ICtDFT= 12500011 ScaDFX=  1.000000  1.000000  1.000000  1.000000
 Largest valence mixing into a core orbital is  2.11D-04
 Largest core mixing into a valence orbital is  3.36D-05
 Largest valence mixing into a core orbital is  2.31D-04
 Largest core mixing into a valence orbital is  3.66D-05
 Range of M.O.s used for correlation:     3    92
 NBasis=    92 NAE=     7 NBE=     6 NFC=     2 NFV=     0
 NROrb=     90 NOA=     5 NOB=     4 NVA=    85 NVB=    86

 **** Warning!!: The largest alpha MO coefficient is  0.16973098D+02


 **** Warning!!: The largest beta MO coefficient is  0.16872689D+02

 Leave Link  801 at Fri Sep 25 11:32:39 2020, MaxMem=   327680000 cpu:               0.8 elap:               0.1
 (Enter /applis/site/cecic/gaussian16/B.01/nehalem/g16/l804.exe)
 Open-shell transformation, MDV=   327680000 ITran=4 ISComp=1.
 Unit  1 TFree=        527548 TCopy=        369306.
 Semi-Direct transformation.
 ModeAB=           2 MOrb=             5 LenV=     327257250
 LASXX=      1737880 LTotXX=     1737880 LenRXX=     1737880
 LTotAB=     1801800 MaxLAS=     2747250 LenRXY=     2747250
 NonZer=     3475760 LenScr=     5767168 LnRSAI=           0
 LnScr1=           0 LExtra=           0 Total=     10252298
 MaxDsk=          -1 SrtSym=           F ITran=            4
 DoSDTr:  NPSUse=  8
 JobTyp=1 Pass  1:  I=   1 to   5.
 (rs|ai) integrals will be sorted in core.
 Complete sort for first half transformation.
 First half transformation complete.
 Complete sort for second half transformation.
 Second half transformation complete.
 ModeAB=           2 MOrb=             4 LenV=     327257250
 LASXX=      1399671 LTotXX=     1399671 LenRXX=     2197800
 LTotAB=     1293870 MaxLAS=     2197800 LenRXY=     1293870
 NonZer=     2799342 LenScr=     4718592 LnRSAI=           0
 LnScr1=           0 LExtra=           0 Total=      8210262
 MaxDsk=          -1 SrtSym=           F ITran=            4
 DoSDTr:  NPSUse=  8
 JobTyp=2 Pass  1:  I=   1 to   4.
 (rs|ai) integrals will be sorted in core.
 Complete sort for first half transformation.
 First half transformation complete.
 Complete sort for second half transformation.
 Second half transformation complete.
 SymMOI:  orbitals are not symmetric.
 Spin components of T(2) and E(2):
     alpha-alpha T2 =       0.1500284120D-01 E2=     -0.4230623625D-01
     alpha-beta  T2 =       0.6771763664D-01 E2=     -0.2051534513D+00
     beta-beta   T2 =       0.1173090687D-01 E2=     -0.3490686144D-01
 ANorm=    0.1046160305D+01
 E2 =    -0.2823665490D+00 EUMP2 =    -0.92518816990400D+02
 (S**2,0)=  0.10863D+01           (S**2,1)=  0.10110D+01
 E(PUHF)=      -0.92259534861D+02        E(PMP2)=      -0.92539613633D+02
 Leave Link  804 at Fri Sep 25 11:32:41 2020, MaxMem=   327680000 cpu:              14.6 elap:               1.9
 (Enter /applis/site/cecic/gaussian16/B.01/nehalem/g16/l913.exe)
 CIDS:  MDV=   327680000.
 Frozen-core window:  NFC=   2 NFV=   0.
 IFCWin=0 IBDFC=1 NFBD=     0     0 NFCmp=     0     0 NFFFC=     0     0
 Using original routines for 1st iteration.
 Using DD4UQ or CC4UQ for 2nd and later iterations.
 Keep R2 and R3 ints in memory in symmetry-blocked form, NReq=13089247.
 FoFCou: FMM=F IPFlag=           0 FMFlag=           0 FMFlg1=           0
         NFxFlg=           0 DoJE=F BraDBF=F KetDBF=F FulRan=T
         wScrn=  0.000000 ICntrl=       600 IOpCl=  0 I1Cent=           0 NGrid=           0
         NMat0=    1 NMatS0=   4278 NMatT0=    0 NMatD0=    1 NMtDS0=    0 NMtDT0=    0
 Petite list used in FoFCou.
 CIDS: In Core Option IDoMem=           1.
 CCSD(T)
 =======
 Iterations=  50 Convergence= 0.100D-06
 Produce multiple copies of IABC intergrals
 Iteration Nr.   1
 **********************
 DD1Dir will call FoFMem   1 times, MxPair=        56
 NAB=    20 NAA=    10 NBB=     6.
 E(PMP3)=      -0.92541178285D+02
 MP4(R+Q)=  0.69256900D-02
 Maximum subspace dimension=  5
 A-vector RMS=  7.6738269D-03 Max=  4.0656128D-02 conv= 1.00D-05.
 RLE energy=       -0.2818765784
 E3=       -0.60509607D-02        EUMP3=      -0.92524867951D+02
 E4(DQ)=   -0.71635938D-03        UMP4(DQ)=   -0.92525584310D+02
 E4(SDQ)=  -0.10115880D-01        UMP4(SDQ)=  -0.92534983831D+02
 VARIATIONAL ENERGIES WITH THE FIRST-ORDER WAVEFUNCTION:
 DE(Corr)= -0.28187625     E(Corr)=     -92.518326689    
 NORM(A)=   0.10511297D+01
 Iteration Nr.   2
 **********************
 DD1Dir will call FoFMem   1 times, MxPair=        56
 NAB=    20 NAA=    10 NBB=     6.
 A-vector RMS=  3.3696833D-03 Max=  1.6006740D-02 conv= 1.00D-05.
 RLE energy=       -0.3018455293
 DE(Corr)= -0.29611699     E(CORR)=     -92.532567429     Delta=-1.42D-02
 NORM(A)=   0.10694393D+01
 Iteration Nr.   3
 **********************
 DD1Dir will call FoFMem   1 times, MxPair=        56
 NAB=    20 NAA=    10 NBB=     6.
 A-vector RMS=  3.0839942D-03 Max=  2.4037898D-02 conv= 1.00D-05.
 RLE energy=       -0.3116522329
 DE(Corr)= -0.30147616     E(CORR)=     -92.537926599     Delta=-5.36D-03
 NORM(A)=   0.11025581D+01
 Iteration Nr.   4
 **********************
 DD1Dir will call FoFMem   1 times, MxPair=        56
 NAB=    20 NAA=    10 NBB=     6.
 A-vector RMS=  8.8124326D-04 Max=  7.2153245D-03 conv= 1.00D-05.
 RLE energy=       -0.3143137990
 DE(Corr)= -0.31153021     E(CORR)=     -92.547980655     Delta=-1.01D-02
 NORM(A)=   0.11169329D+01
 Iteration Nr.   5
 **********************
 DD1Dir will call FoFMem   1 times, MxPair=        56
 NAB=    20 NAA=    10 NBB=     6.
 A-vector RMS=  7.2776104D-04 Max=  1.0465808D-02 conv= 1.00D-05.
 RLE energy=       -0.3149483700
 DE(Corr)= -0.31424952     E(CORR)=     -92.550699961     Delta=-2.72D-03
 NORM(A)=   0.11225924D+01
 Iteration Nr.   6
 **********************
 DD1Dir will call FoFMem   1 times, MxPair=        56
 NAB=    20 NAA=    10 NBB=     6.
 A-vector RMS=  3.2324362D-04 Max=  3.1196094D-03 conv= 1.00D-05.
 RLE energy=       -0.3146060172
 DE(Corr)= -0.31492859     E(CORR)=     -92.551379036     Delta=-6.79D-04
 NORM(A)=   0.11240280D+01
 Iteration Nr.   7
 **********************
 DD1Dir will call FoFMem   1 times, MxPair=        56
 NAB=    20 NAA=    10 NBB=     6.
 A-vector RMS=  2.7282562D-04 Max=  2.8869545D-03 conv= 1.00D-05.
 RLE energy=       -0.3151639962
 DE(Corr)= -0.31493175     E(CORR)=     -92.551382187     Delta=-3.15D-06
 NORM(A)=   0.11258304D+01
 Iteration Nr.   8
 **********************
 DD1Dir will call FoFMem   1 times, MxPair=        56
 NAB=    20 NAA=    10 NBB=     6.
 A-vector RMS=  7.7282074D-05 Max=  5.2644223D-04 conv= 1.00D-05.
 RLE energy=       -0.3149016101
 DE(Corr)= -0.31495971     E(CORR)=     -92.551410153     Delta=-2.80D-05
 NORM(A)=   0.11259281D+01
 Iteration Nr.   9
 **********************
 DD1Dir will call FoFMem   1 times, MxPair=        56
 NAB=    20 NAA=    10 NBB=     6.
 A-vector RMS=  2.9862240D-05 Max=  2.1136179D-04 conv= 1.00D-05.
 RLE energy=       -0.3150299303
 DE(Corr)= -0.31499561     E(CORR)=     -92.551446048     Delta=-3.59D-05
 NORM(A)=   0.11261571D+01
 Iteration Nr.  10
 **********************
 DD1Dir will call FoFMem   1 times, MxPair=        56
 NAB=    20 NAA=    10 NBB=     6.
 A-vector RMS=  2.9795739D-05 Max=  2.6612073D-04 conv= 1.00D-05.
 RLE energy=       -0.3150104735
 DE(Corr)= -0.31499929     E(CORR)=     -92.551449728     Delta=-3.68D-06
 NORM(A)=   0.11263101D+01
 Iteration Nr.  11
 **********************
 DD1Dir will call FoFMem   1 times, MxPair=        56
 NAB=    20 NAA=    10 NBB=     6.
 A-vector RMS=  1.5571328D-05 Max=  5.4767245D-05 conv= 1.00D-05.
 RLE energy=       -0.3150293788
 DE(Corr)= -0.31502352     E(CORR)=     -92.551473964     Delta=-2.42D-05
 NORM(A)=   0.11263707D+01
 Iteration Nr.  12
 **********************
 DD1Dir will call FoFMem   1 times, MxPair=        56
 NAB=    20 NAA=    10 NBB=     6.
 A-vector RMS=  1.0031415D-05 Max=  1.2684020D-04 conv= 1.00D-05.
 RLE energy=       -0.3150414720
 DE(Corr)= -0.31503360     E(CORR)=     -92.551484040     Delta=-1.01D-05
 NORM(A)=   0.11264348D+01
 Iteration Nr.  13
 **********************
 DD1Dir will call FoFMem   1 times, MxPair=        56
 NAB=    20 NAA=    10 NBB=     6.
 A-vector RMS=  4.0642893D-06 Max=  4.2115417D-05 conv= 1.00D-05.
 RLE energy=       -0.3150450121
 DE(Corr)= -0.31504227     E(CORR)=     -92.551492712     Delta=-8.67D-06
 NORM(A)=   0.11264614D+01
 Iteration Nr.  14
 **********************
 DD1Dir will call FoFMem   1 times, MxPair=        56
 NAB=    20 NAA=    10 NBB=     6.
 A-vector RMS=  3.4731313D-06 Max=  4.6979358D-05 conv= 1.00D-05.
 RLE energy=       -0.3150492932
 DE(Corr)= -0.31504551     E(CORR)=     -92.551495949     Delta=-3.24D-06
 NORM(A)=   0.11264926D+01
 Iteration Nr.  15
 **********************
 DD1Dir will call FoFMem   1 times, MxPair=        56
 NAB=    20 NAA=    10 NBB=     6.
 A-vector RMS=  1.7148944D-06 Max=  2.0346745D-05 conv= 1.00D-05.
 RLE energy=       -0.3150488319
 DE(Corr)= -0.31504813     E(CORR)=     -92.551498576     Delta=-2.63D-06
 NORM(A)=   0.11265038D+01
 Iteration Nr.  16
 **********************
 DD1Dir will call FoFMem   1 times, MxPair=        56
 NAB=    20 NAA=    10 NBB=     6.
 A-vector RMS=  8.1337654D-07 Max=  8.2519799D-06 conv= 1.00D-05.
 RLE energy=       -0.3150496438
 DE(Corr)= -0.31504915     E(CORR)=     -92.551499596     Delta=-1.02D-06
 NORM(A)=   0.11265098D+01
 Iteration Nr.  17
 **********************
 DD1Dir will call FoFMem   1 times, MxPair=        56
 NAB=    20 NAA=    10 NBB=     6.
 A-vector RMS=  4.9290985D-07 Max=  6.9141121D-06 conv= 1.00D-05.
 RLE energy=       -0.3150499152
 DE(Corr)= -0.31504954     E(CORR)=     -92.551499986     Delta=-3.90D-07
 NORM(A)=   0.11265154D+01
 Iteration Nr.  18
 **********************
 DD1Dir will call FoFMem   1 times, MxPair=        56
 NAB=    20 NAA=    10 NBB=     6.
 A-vector RMS=  1.7051239D-07 Max=  8.0593443D-07 conv= 1.00D-05.
 RLE energy=       -0.3150502206
 DE(Corr)= -0.31505017     E(CORR)=     -92.551500616     Delta=-6.30D-07
 NORM(A)=   0.11265158D+01
 Iteration Nr.  19
 **********************
 DD1Dir will call FoFMem   1 times, MxPair=        56
 NAB=    20 NAA=    10 NBB=     6.
 A-vector RMS=  1.2884113D-07 Max=  1.4240826D-06 conv= 1.00D-05.
 RLE energy=       -0.3150504653
 DE(Corr)= -0.31505027     E(CORR)=     -92.551500713     Delta=-9.69D-08
 NORM(A)=   0.11265172D+01
 CI/CC converged in   19 iterations to DelEn=-9.69D-08 Conv= 1.00D-07 ErrA1= 1.29D-07 Conv= 1.00D-05
 Wavefunction amplitudes converged. E(Corr)=     -92.551500713    
 Dominant configurations:
 ***********************
 Spin Case        I    J    A    B          Value
    BB            4         7           -0.201961D+00
    BB            5        16            0.100159D+00
    BB            6        15            0.100159D+00
 Largest amplitude= 2.02D-01
 Time for triples=      162.16 seconds.
 T4(CCSD)= -0.21987684D-01
 T5(CCSD)=  0.34810040D-02
 CCSD(T)= -0.92570007393D+02

 S**2, projected HF & approx projected MPn energies after annihilation of
 unwanted spin states (see manual for definitions):

 spins       (S**2,0) (S**2,1)    PUHF        PMP2        PMP3        PMP4
 annihilated
 s+1         0.70657  0.72870  -92.259535  -92.539614  -92.541178
 s+1,s+2     0.75018  0.74994  -92.257247  -92.537411  -92.539086
 s+1 to s+3  0.75000  0.75000  -92.257265  -92.537425  -92.539095
 s+1 to s+4  0.75000  0.75000  -92.257265  -92.537425  -92.539095

 Discarding MO integrals.
 Leave Link  913 at Fri Sep 25 11:33:32 2020, MaxMem=   327680000 cpu:             376.6 elap:              51.2
 (Enter /applis/site/cecic/gaussian16/B.01/nehalem/g16/l601.exe)
 Copying SCF densities to generalized density rwf, IOpCl= 1 IROHF=0.

 **********************************************************************

            Population analysis using the SCF Density.

 **********************************************************************

 Orbital symmetries:
 Alpha Orbitals:
       Occupied  (SG) (SG) (SG) (SG) (SG) (PI) (PI)
       Virtual   (SG) (SG) (PI) (PI) (PI) (PI) (SG) (PI) (PI) (SG)
                 (DLTA) (DLTA) (SG) (PI) (PI) (PI) (PI) (SG) (SG)
                 (DLTA) (DLTA) (PI) (PI) (SG) (SG) (DLTA) (DLTA)
                 (PI) (PI) (PHI) (PHI) (PI) (PI) (SG) (DLTA) (DLTA)
                 (SG) (SG) (PI) (PI) (PHI) (PHI) (DLTA) (DLTA)
                 (PI) (PI) (SG) (PI) (PI) (DLTA) (DLTA) (SG) (SG)
                 (PI) (PI) (SG) (DLTA) (DLTA) (PHI) (PHI) (PI)
                 (PI) (DLTA) (DLTA) (SG) (PI) (PI) (SG) (PI) (PI)
                 (SG) (PHI) (PHI) (DLTA) (DLTA) (DLTA) (DLTA) (PI)
                 (PI) (SG) (PI) (PI) (SG) (SG) (SG)
 Beta  Orbitals:
       Occupied  (SG) (SG) (SG) (SG) (PI) (PI)
       Virtual   (SG) (SG) (PI) (PI) (SG) (PI) (PI) (SG) (PI) (PI)
                 (SG) (DLTA) (DLTA) (SG) (PI) (PI) (PI) (PI) (SG)
                 (SG) (DLTA) (DLTA) (PI) (PI) (SG) (SG) (PI) (PI)
                 (DLTA) (DLTA) (PHI) (PHI) (SG) (PI) (PI) (DLTA)
                 (DLTA) (SG) (SG) (PI) (PI) (PHI) (PHI) (DLTA)
                 (DLTA) (PI) (PI) (SG) (DLTA) (DLTA) (PI) (PI)
                 (SG) (SG) (PI) (PI) (SG) (DLTA) (DLTA) (PHI) (PHI)
                 (PI) (PI) (DLTA) (DLTA) (SG) (PI) (PI) (SG) (PI)
                 (PI) (SG) (PHI) (PHI) (DLTA) (DLTA) (DLTA) (DLTA)
                 (PI) (PI) (SG) (PI) (PI) (SG) (SG) (SG)
 The electronic state is 2-SG.
 Alpha  occ. eigenvalues --  -15.60298 -11.35456  -1.25520  -0.73904  -0.56998
 Alpha  occ. eigenvalues --   -0.52455  -0.52455
 Alpha virt. eigenvalues --    0.06746   0.07339   0.07888   0.07888   0.13288
 Alpha virt. eigenvalues --    0.13288   0.15544   0.20425   0.20425   0.25646
 Alpha virt. eigenvalues --    0.28900   0.28900   0.35503   0.40655   0.40655
 Alpha virt. eigenvalues --    0.46003   0.46003   0.46713   0.53933   0.55979
 Alpha virt. eigenvalues --    0.55979   0.66086   0.66086   0.70800   0.93830
 Alpha virt. eigenvalues --    0.98864   0.98864   1.03368   1.03368   1.06595
 Alpha virt. eigenvalues --    1.06595   1.10169   1.10169   1.12718   1.20837
 Alpha virt. eigenvalues --    1.20837   1.24065   1.35769   1.44101   1.44101
 Alpha virt. eigenvalues --    1.64653   1.64653   1.68287   1.68287   1.86987
 Alpha virt. eigenvalues --    1.86987   1.87738   2.10795   2.10795   2.12175
 Alpha virt. eigenvalues --    2.12175   2.23075   2.50926   2.77499   2.77499
 Alpha virt. eigenvalues --    3.28206   3.33902   3.33902   3.40294   3.40294
 Alpha virt. eigenvalues --    3.41320   3.41320   3.55606   3.55606   3.63598
 Alpha virt. eigenvalues --    3.67708   3.67708   3.68426   4.47574   4.47574
 Alpha virt. eigenvalues --    4.61656   4.97123   4.97123   5.19305   5.19305
 Alpha virt. eigenvalues --    5.38386   5.38386   5.55124   5.55124   5.99794
 Alpha virt. eigenvalues --    6.03654   6.03654   6.16768  11.15788  16.07630
  Beta  occ. eigenvalues --  -15.62543 -11.30126  -1.26142  -0.61902  -0.53883
  Beta  occ. eigenvalues --   -0.53883
  Beta virt. eigenvalues --   -0.03963   0.07346   0.07541   0.07541   0.09989
  Beta virt. eigenvalues --    0.15667   0.15667   0.16362   0.21993   0.21993
  Beta virt. eigenvalues --    0.26188   0.29786   0.29786   0.36851   0.40127
  Beta virt. eigenvalues --    0.40127   0.48961   0.48961   0.50970   0.54915
  Beta virt. eigenvalues --    0.55152   0.55152   0.68598   0.68598   0.76911
  Beta virt. eigenvalues --    0.99555   1.01186   1.01186   1.04633   1.04633
  Beta virt. eigenvalues --    1.07963   1.07963   1.13093   1.14246   1.14246
  Beta virt. eigenvalues --    1.21336   1.21336   1.25487   1.37206   1.44666
  Beta virt. eigenvalues --    1.44666   1.63697   1.63697   1.65248   1.65248
  Beta virt. eigenvalues --    1.87682   1.87682   1.89096   2.10785   2.10785
  Beta virt. eigenvalues --    2.12937   2.12937   2.27523   2.55503   2.79986
  Beta virt. eigenvalues --    2.79986   3.35237   3.41190   3.41190   3.44889
  Beta virt. eigenvalues --    3.44889   3.49695   3.49695   3.60340   3.60340
  Beta virt. eigenvalues --    3.64202   3.66652   3.66652   3.72796   4.47358
  Beta virt. eigenvalues --    4.47358   4.61933   4.93312   4.93312   5.14327
  Beta virt. eigenvalues --    5.14327   5.35459   5.35459   5.52868   5.52868
  Beta virt. eigenvalues --    6.00232   6.04064   6.04064   6.17667  11.17874
  Beta virt. eigenvalues --   16.07795
          Condensed to atoms (all electrons):
               1          2
     1  N    6.496126   0.653630
     2  C    0.653630   5.196615
          Atomic-Atomic Spin Densities.
               1          2
     1  N   -0.862231   0.128833
     2  C    0.128833   1.604565
 Mulliken charges and spin densities:
               1          2
     1  N   -0.149756  -0.733398
     2  C    0.149756   1.733398
 Sum of Mulliken charges =  -0.00000   1.00000
 Mulliken charges and spin densities with hydrogens summed into heavy atoms:
               1          2
     1  N   -0.149756  -0.733398
     2  C    0.149756   1.733398
 Electronic spatial extent (au):  <R**2>=             39.4025
 Charge=             -0.0000 electrons
 Dipole moment (field-independent basis, Debye):
    X=              0.0000    Y=              0.0000    Z=             -2.2142  Tot=              2.2142
 Quadrupole moment (field-independent basis, Debye-Ang):
   XX=            -10.9919   YY=            -10.9919   ZZ=            -10.3804
   XY=              0.0000   XZ=              0.0000   YZ=             -0.0000
 Traceless Quadrupole moment (field-independent basis, Debye-Ang):
   XX=             -0.2038   YY=             -0.2038   ZZ=              0.4076
   XY=              0.0000   XZ=              0.0000   YZ=             -0.0000
 Octapole moment (field-independent basis, Debye-Ang**2):
  XXX=              0.0000  YYY=             -0.0000  ZZZ=             -2.2089  XYY=              0.0000
  XXY=              0.0000  XXZ=             -0.0519  XZZ=              0.0000  YZZ=             -0.0000
  YYZ=             -0.0519  XYZ=             -0.0000
 Hexadecapole moment (field-independent basis, Debye-Ang**3):
 XXXX=            -11.2260 YYYY=            -11.2260 ZZZZ=            -32.4288 XXXY=              0.0000
 XXXZ=              0.0000 YYYX=              0.0000 YYYZ=              0.0000 ZZZX=              0.0000
 ZZZY=              0.0000 XXYY=             -3.7420 XXZZ=             -7.0947 YYZZ=             -7.0947
 XXYZ=             -0.0000 YYXZ=              0.0000 ZZXY=              0.0000
 N-N= 1.927443532203D+01 E-N=-2.547547789433D+02  KE= 9.218864246923D+01
 Leave Link  601 at Fri Sep 25 11:33:33 2020, MaxMem=   327680000 cpu:               0.9 elap:               0.2
 (Enter /applis/site/cecic/gaussian16/B.01/nehalem/g16/l9999.exe)
 1\1\GINC-DAHU112\SP\UCCSD(T)-FC\Aug-CC-pVTZ\C1N1(2)\TINACCIL\25-Sep-20
 20\0\\#P CCSD(T)/aug-cc-pvtz geom=allcheck guess=read\\Title\\0,2\N,0,
 0.,0.,0.0020026267\C,0,0.,0.,1.1551073733\\Version=ES64L-G16RevB.01\St
 ate=2-SG\HF=-92.2364504\MP2=-92.518817\MP3=-92.524868\MP4D=-92.53251\M
 P4DQ=-92.5255843\PUHF=-92.2595349\PMP2-0=-92.5396136\PMP3-0=-92.541178
 3\MP4SDQ=-92.5349838\CCSD=-92.5515007\CCSD(T)=-92.5700074\S2=1.086313\
 S2-1=1.011044\S2A=0.821833\RMSD=3.986e-09\PG=C*V [C*(C1N1)]\\@


 TERENCE, THIS IS STUPID STUFF:
 YOU EAT YOUR VICTUALS FAST ENOUGH;
 THERE CAN'T BE MUCH AMISS, 'TIS CLEAR
 TO SEE THE RATE YOU DRINK YOUR BEER.
 BUT OH, GOOD LORD, THE VERSE YOU MAKE,
 IT GIVES A CHAP THE BELLY-ACHE.
 THE COW, THE OLD COW, SHE IS DEAD;
 IT SLEEPS WELL, THE HORNED HEAD:
 WE POOR LADS, 'TIS OUR TURN NOW
 TO HEAR SUCH TUNES AS KILLED THE COW.
 PRETTY FRIENDSHIP 'TIS TO RHYME
 YOUR FRIENDS TO DEATH BEFORE THEIR TIME.
 MOPING, MELANCHOLY MAD:
 COME PIPE A TUNE TO DANCE TO, LAD.

     -- A. E. HOUSMAN
 Job cpu time:       0 days  0 hours  6 minutes 51.1 seconds.
 Elapsed time:       0 days  0 hours  0 minutes 56.1 seconds.
 File lengths (MBytes):  RWF=    326 Int=      0 D2E=      0 Chk=      2 Scr=      1
 Normal termination of Gaussian 16 at Fri Sep 25 11:33:33 2020.
