5
 energy: -9.383906684696 gnorm: 0.310336655019 xtb: 6.2.2 (9d81278992624c895f80dd42a50cac0aa55982e2)
C         1.67692100000000   -0.18111100000000   -0.58227300000000
C         0.80260400000000   -0.42856400000000    0.63494100000000
C        -0.60510800000000    0.10598300000000    0.41823800000000
N        -1.29109200000000   -0.67392900000000   -0.59774100000000
H        -0.58332500000000    1.17762100000000    0.12683500000000
5
 energy: -9.486954859427 gnorm: 0.253014038670 xtb: 6.2.2 (9d81278992624c895f80dd42a50cac0aa55982e2)
C         1.65001226891152   -0.22809764385446   -0.49354207885716
C         0.78938740141135   -0.39896980317643    0.52197251113458
C        -0.55724490377814    0.09312133928168    0.31666917633373
N        -1.24407774108356   -0.65182376659440   -0.52151242637524
H        -0.63807702546118    1.18576987434360    0.17641281776408
5
 energy: -9.351111995173 gnorm: 1.449815969135 xtb: 6.2.2 (9d81278992624c895f80dd42a50cac0aa55982e2)
C         1.58712343744954   -0.26928007813063   -0.29815542886851
C         0.86185716086255   -0.33562429145868    0.33177816045478
C        -0.52832320791204    0.03694934347267    0.14277349144863
N        -1.25180894157221   -0.59027356598445   -0.39948498911268
H        -0.66884844882784    1.15822859210109    0.22308876607778
5
 energy: -9.546803624068 gnorm: 0.153139073424 xtb: 6.2.2 (9d81278992624c895f80dd42a50cac0aa55982e2)
C         1.73754831528377   -0.26040172464586   -0.39071010511930
C         0.78499485464559   -0.34551774272523    0.39659012587948
C        -0.54226973832934    0.06609568357542    0.16084030895377
N        -1.30451650066367   -0.62684429335246   -0.41102832488968
H        -0.67575693093635    1.16666807714813    0.24430799517573
5
 energy: -9.553603320478 gnorm: 0.190619957145 xtb: 6.2.2 (9d81278992624c895f80dd42a50cac0aa55982e2)
C         1.92032649341122   -0.27242253686004   -0.28925944681651
C         0.81995572976398   -0.33292978171826    0.27874918180766
C        -0.53247481902670    0.08134847487388    0.04898330215530
N        -1.48951447025845   -0.67995840323939   -0.34975515975924
H        -0.71829293389006    1.20396224694381    0.31128212261279
5
 energy: -9.569622413076 gnorm: 0.151132047319 xtb: 6.2.2 (9d81278992624c895f80dd42a50cac0aa55982e2)
C         1.95915902478107   -0.35519366869762   -0.30127687020153
C         0.82844690533721   -0.23713929372986    0.22253850164695
C        -0.62858525068228    0.08417502814873    0.09444171153621
N        -1.43273104949816   -0.65995566424843   -0.36908885575944
H        -0.72628962993784    1.16811359852718    0.35338551277782
5
 energy: -9.568769813858 gnorm: 0.076880308516 xtb: 6.2.2 (9d81278992624c895f80dd42a50cac0aa55982e2)
C         1.84819784166856   -0.26406195073776   -0.30477146543151
C         0.81918824025224   -0.27298020553336    0.25962976787002
C        -0.65832960110548    0.09583148508018    0.13308152005823
N        -1.41495733644140   -0.67203685436500   -0.38288937885340
H        -0.59409914437392    1.11324752555595    0.29494955635665
5
 energy: -9.576230899940 gnorm: 0.037799164561 xtb: 6.2.2 (9d81278992624c895f80dd42a50cac0aa55982e2)
C         1.91189390292427   -0.30411872314212   -0.28255148917738
C         0.82390991375664   -0.25458924540782    0.21818534126246
C        -0.65222779825653    0.09303034100960    0.08145532491007
N        -1.43959570071093   -0.68607969474159   -0.35880521271348
H        -0.64398031771344    1.15175732228193    0.34171603571833
5
 energy: -9.577994824110 gnorm: 0.076166378544 xtb: 6.2.2 (9d81278992624c895f80dd42a50cac0aa55982e2)
C         1.97026870854707   -0.31481131257422   -0.24527939847793
C         0.82574169985707   -0.24804972700189    0.15953063386824
C        -0.65909173895565    0.09932435958963    0.05493871270595
N        -1.47084357546497   -0.68353144839498   -0.32581065619201
H        -0.66607509398353    1.14706812838145    0.35662070809575
5
 energy: -9.578613694350 gnorm: 0.047804010412 xtb: 6.2.2 (9d81278992624c895f80dd42a50cac0aa55982e2)
C         1.97540864450495   -0.38924118882370   -0.24097427297298
C         0.85402768418881   -0.19712852480911    0.14186626002388
C        -0.65802441026887    0.11484974405779    0.01681999501637
N        -1.45173800469112   -0.69633201685333   -0.34151593579413
H        -0.71967391373377    1.16785198642834    0.42380395372685
5
 energy: -9.580833199728 gnorm: 0.025832524287 xtb: 6.2.2 (9d81278992624c895f80dd42a50cac0aa55982e2)
C         1.97308685177008   -0.35080999009022   -0.21796408197550
C         0.83954036605620   -0.22131743075736    0.11615540527765
C        -0.66398625055858    0.11592191208090    0.02462463405975
N        -1.46042662724494   -0.69009247603047   -0.31698570658558
H        -0.68821434002275    1.14629798479714    0.39416974922368
5
 energy: -9.581882109263 gnorm: 0.038138458994 xtb: 6.2.2 (9d81278992624c895f80dd42a50cac0aa55982e2)
C         1.99128552032812   -0.33618764362807   -0.18082797731093
C         0.82166390305315   -0.22664648824333    0.05795122595912
C        -0.66996773548198    0.12650965061847    0.02243631220579
N        -1.47087507749924   -0.69617899310374   -0.28946559596439
H        -0.67210661040005    1.13250347435668    0.38990603511040
5
 energy: -9.582750359500 gnorm: 0.021122446217 xtb: 6.2.2 (9d81278992624c895f80dd42a50cac0aa55982e2)
C         1.98263641198234   -0.34498494655774   -0.16797550605844
C         0.81552448392797   -0.22207736749397    0.03466345481887
C        -0.66446116338122    0.13263361566144    0.02245769184343
N        -1.45629658586782   -0.69957558440064   -0.28562393486280
H        -0.67740314666127    1.13400428279092    0.39647829425893
5
 energy: -9.583639457301 gnorm: 0.017146779824 xtb: 6.2.2 (9d81278992624c895f80dd42a50cac0aa55982e2)
C         1.97961274623155   -0.36641058184251   -0.13670359564089
C         0.80327925854525   -0.21329916860428   -0.02247428379436
C        -0.65271962167763    0.14249050480594    0.02097254030317
N        -1.43327331338306   -0.70669796360741   -0.27309994084628
H        -0.69689906971611    1.14391720924826    0.41130527997836
5
 energy: -9.583879684111 gnorm: 0.006560464909 xtb: 6.2.2 (9d81278992624c895f80dd42a50cac0aa55982e2)
C         1.97199391617317   -0.37573006596864   -0.12772709273591
C         0.79956660082493   -0.21392383692258   -0.04127816179817
C        -0.64551877554830    0.14607988721561    0.02996285293641
N        -1.41839221565680   -0.71101241550599   -0.27422966660770
H        -0.70764952579301    1.15458643118161    0.41327206820537
5
 energy: -9.583999287670 gnorm: 0.009985056576 xtb: 6.2.2 (9d81278992624c895f80dd42a50cac0aa55982e2)
C         1.97462530001931   -0.37987923135489   -0.11101349481800
C         0.79570433174531   -0.21707310684339   -0.07174373757338
C        -0.64529946790216    0.14969016523135    0.03884661018443
N        -1.41074142061976   -0.71390710674365   -0.26763391408609
H        -0.71428874324270    1.16116927971058    0.41154453629304
5
 energy: -9.584086137611 gnorm: 0.003776102518 xtb: 6.2.2 (9d81278992624c895f80dd42a50cac0aa55982e2)
C         1.97353322136792   -0.37401521351736   -0.10709171411940
C         0.79425300927448   -0.22661536064609   -0.07887990007881
C        -0.64828412924306    0.14992739625955    0.04714616424433
N        -1.40792794224710   -0.71642212402320   -0.26528211256536
H        -0.71157415915224    1.16712530192711    0.40410756251923
5
 energy: -9.584158283209 gnorm: 0.004134260330 xtb: 6.2.2 (9d81278992624c895f80dd42a50cac0aa55982e2)
C         1.97265793155677   -0.36011215455746   -0.09978522990649
C         0.78901833961259   -0.24553221202560   -0.08994086218892
C        -0.65249883520488    0.15166183977296    0.05305930516300
N        -1.40531642624149   -0.72222810207900   -0.25650033911472
H        -0.70386100972299    1.17621062888909    0.39316712604712
5
 energy: -9.584227002236 gnorm: 0.004575120373 xtb: 6.2.2 (9d81278992624c895f80dd42a50cac0aa55982e2)
C         1.96977506169341   -0.34086922499493   -0.09393323492600
C         0.78088047793044   -0.27352645879841   -0.09809711987134
C        -0.65507891059113    0.15512592546380    0.05705132786671
N        -1.39944516085418   -0.72824938640311   -0.24387945409967
H        -0.69613146817855    1.18751914473265    0.37885848103028
5
 energy: -9.584316050864 gnorm: 0.006273108140 xtb: 6.2.2 (9d81278992624c895f80dd42a50cac0aa55982e2)
C         1.96281854719285   -0.32165332039849   -0.09143178653029
C         0.76971305143800   -0.30561500282761   -0.10269365622907
C        -0.65541394503690    0.16260127336539    0.05880363791395
N        -1.38677707053315   -0.73601328685531   -0.23079155130245
H        -0.69034058306079    1.20068033671602    0.36611335614786
5
 energy: -9.584523981303 gnorm: 0.009825211885 xtb: 6.2.2 (9d81278992624c895f80dd42a50cac0aa55982e2)
C         1.94309932903782   -0.29407284929246   -0.09337100846931
C         0.74593577293824   -0.36361594573748   -0.10606326865941
C        -0.65181695764398    0.18247593546610    0.05997137627555
N        -1.34956723602139   -0.75114930251935   -0.20969293608816
H        -0.68765090831068    1.22636216208318    0.34915583694132
5
 energy: -9.584686791457 gnorm: 0.010409224086 xtb: 6.2.2 (9d81278992624c895f80dd42a50cac0aa55982e2)
C         1.93810206244618   -0.30587813906869   -0.09344503214046
C         0.74206894764213   -0.35803646450436   -0.10427927037396
C        -0.64895629036803    0.19545682387864    0.03609642366700
N        -1.33414698272395   -0.75546886688969   -0.19914716616241
H        -0.69706773699634    1.22392664658410    0.36077504500983
5
 energy: -9.585111815032 gnorm: 0.024829523614 xtb: 6.2.2 (9d81278992624c895f80dd42a50cac0aa55982e2)
C         1.92290679797349   -0.34330977976532   -0.09829253036804
C         0.72822438467371   -0.33581110193279   -0.11289165598120
C        -0.64055802474902    0.20684837281628    0.06909059199212
N        -1.28330273586767   -0.75850121230976   -0.20836370290132
H        -0.72727042203052    1.23077372119159    0.35045729725844
5
 energy: -9.585616907342 gnorm: 0.014076363396 xtb: 6.2.2 (9d81278992624c895f80dd42a50cac0aa55982e2)
C         1.92271568904683   -0.36313605913400   -0.12167589805171
C         0.72135729064924   -0.33716370302577   -0.08491567487272
C        -0.63869388007419    0.22056010654189    0.07301113756248
N        -1.25382453485109   -0.76541353148841   -0.21964455867020
H        -0.75155456477080    1.24515318710630    0.35322499403214
5
 energy: -9.587118031638 gnorm: 0.060041927076 xtb: 6.2.2 (9d81278992624c895f80dd42a50cac0aa55982e2)
C         1.91465644943813   -0.47272117697643   -0.13530085796806
C         0.68616581236246   -0.31223764900551   -0.10393819346006
C        -0.62871167406796    0.28566858005174    0.08260310941915
N        -1.11259699058708   -0.80882109759119   -0.22046838188795
H        -0.85951359714556    1.30811134352140    0.37710432389691
5
 energy: -9.584745280637 gnorm: 0.137396726266 xtb: 6.2.2 (9d81278992624c895f80dd42a50cac0aa55982e2)
C         1.88580482525315   -0.59601169365533   -0.19527618316718
C         0.62680014258634   -0.31296546316991   -0.06227151399214
C        -0.61047798774890    0.37397649964187    0.09904627124206
N        -0.90397901137865   -0.85248872308168   -0.24372099713466
H        -0.99814796871195    1.38748938026506    0.40222242305192
5
 energy: -9.593504401444 gnorm: 0.065415596797 xtb: 6.2.2 (9d81278992624c895f80dd42a50cac0aa55982e2)
C         1.88255771171347   -0.50393272032011   -0.16872823318145
C         0.63946321615475   -0.35586344710209   -0.07431386961951
C        -0.61545199623387    0.33227366317834    0.08341935904136
N        -0.98764627536956   -0.81653835277732   -0.23140965947275
H        -0.91892265626479    1.34406085702119    0.39103240323234
5
 energy: -9.599025984546 gnorm: 0.031186560321 xtb: 6.2.2 (9d81278992624c895f80dd42a50cac0aa55982e2)
C         1.85363759114482   -0.48681302609686   -0.13250419563268
C         0.60019342476336   -0.39412032361506   -0.13490884391754
C        -0.61032541097377    0.34656174157046    0.08726279000560
N        -0.92760565295790   -0.80388054785820   -0.21187873090830
H        -0.91589995197651    1.33825215599967    0.39202898045291
5
 energy: -9.599498885165 gnorm: 0.022481823544 xtb: 6.2.2 (9d81278992624c895f80dd42a50cac0aa55982e2)
C         1.83282375726674   -0.46613331873901   -0.16185527172363
C         0.57762678877670   -0.44861271323761   -0.09600796699382
C        -0.61304086960284    0.36408796387847    0.10283244425330
N        -0.87590903066067   -0.79061435552752   -0.23041244462093
H        -0.92150064577993    1.34127242362567    0.38544323908507
5
 energy: -9.600132732240 gnorm: 0.005521438938 xtb: 6.2.2 (9d81278992624c895f80dd42a50cac0aa55982e2)
C         1.84552703570912   -0.47191592988212   -0.14465876224252
C         0.59405631232297   -0.42818342162746   -0.12182061241894
C        -0.61881233415203    0.35560787960683    0.10746400314453
N        -0.90321194440950   -0.79183627045433   -0.22350163035462
H        -0.91755906947057    1.33632774235709    0.38251700187154
5
 energy: -9.600176050989 gnorm: 0.007260463147 xtb: 6.2.2 (9d81278992624c895f80dd42a50cac0aa55982e2)
C         1.84532113623996   -0.47969968101760   -0.14156620532765
C         0.59341822123518   -0.42412973470447   -0.12871249022761
C        -0.61965875020912    0.35883836277739    0.10618005673367
N        -0.89568929804542   -0.79468418758201   -0.22080144654279
H        -0.92339130922061    1.33967524052669    0.38490008536437
5
 energy: -9.600217765025 gnorm: 0.005702794102 xtb: 6.2.2 (9d81278992624c895f80dd42a50cac0aa55982e2)
C         1.84598954090611   -0.48391375624976   -0.14504361368262
C         0.59446276253636   -0.42265590897880   -0.12425873797961
C        -0.62199118275877    0.36032602677496    0.10451368088501
N        -0.89126200512529   -0.79456743816819   -0.22118230985995
H        -0.92719911555841    1.34081107662179    0.38597098063717
5
 energy: -9.600278403204 gnorm: 0.002242611696 xtb: 6.2.2 (9d81278992624c895f80dd42a50cac0aa55982e2)
C         1.84828174691698   -0.49623102434119   -0.15021235118247
C         0.59813376024726   -0.41352265096215   -0.11883471269288
C        -0.62914025098037    0.36238241775506    0.10400206550883
N        -0.88231176006453   -0.79408141851749   -0.22151509387416
H        -0.93496349611935    1.34145267606578    0.38656009224067
5
 energy: -9.600286952149 gnorm: 0.000739686955 xtb: 6.2.2 (9d81278992624c895f80dd42a50cac0aa55982e2)
C         1.84867937934052   -0.50029452029438   -0.15121686965700
C         0.59967773025538   -0.40873397277108   -0.11797462078251
C        -0.63132502637135    0.36191110008424    0.10512494290012
N        -0.88081647651972   -0.79424187785848   -0.22194829337912
H        -0.93621560670483    1.34135927083971    0.38601484091851
5
 energy: -9.600287703343 gnorm: 0.000318559213 xtb: 6.2.2 (9d81278992624c895f80dd42a50cac0aa55982e2)
C         1.84829415635349   -0.50104820587236   -0.15073942442166
C         0.59990544903773   -0.40689656226103   -0.11875440877158
C        -0.63179945673019    0.36125211903171    0.10594691355628
N        -0.88085179466947   -0.79448513696368   -0.22203311530562
H        -0.93554835399156    1.34117778606536    0.38558003494257
