$hessian                                                                        
        0.7996565801  -0.0542004091  -0.0187416850  -0.6987451130   0.0360907859
        0.0130878066  -0.0684998420  -0.0334512180  -0.0091947936  -0.0382861750
        0.0516687591   0.0149047672   0.0058745500  -0.0001079179  -0.0000560952
       -0.0542004091   0.0138639853   0.0005780076   0.0443357662  -0.0188217611
        0.0012984729   0.0086061118   0.0061253287   0.0004405648   0.0011254751
       -0.0008256558  -0.0021595698   0.0001330561  -0.0003418971  -0.0001574754
       -0.0187416850   0.0005780076   0.0128799316   0.0154457982   0.0013109910
       -0.0237208020   0.0027396542   0.0006123066   0.0046100234   0.0005439373
       -0.0023439179   0.0060584044   0.0000122953  -0.0001573873   0.0001724426
       -0.6987451130   0.0443357662   0.0154457982   0.9308090240  -0.1059027629
       -0.0339971584  -0.0899268911   0.2220789084   0.0635432990  -0.1270279760
       -0.1597192873  -0.0448907646  -0.0151090440  -0.0007926245  -0.0001011742
        0.0360907859  -0.0188217611   0.0013109910  -0.1059027629   0.1049206601
        0.0167192302   0.0697723983  -0.0881202669  -0.0194591707  -0.0149667237
        0.0053710825   0.0041531770   0.0150063024  -0.0033497146  -0.0027242276
        0.0130878066   0.0012984729  -0.0237208020  -0.0339971584   0.0167192302
        0.0529524921   0.0202897786  -0.0201713251  -0.0267672209  -0.0037386369
        0.0047850428  -0.0076044581   0.0043582101  -0.0026314209   0.0051399889
       -0.0684998420   0.0086061118   0.0027396542  -0.0899268911   0.0697723983
        0.0202897786   0.2305460778  -0.0722232072  -0.0212417793  -0.0219476526
       -0.0878687623  -0.0250420030  -0.0501716920   0.0817134594   0.0232543494
       -0.0334512180   0.0061253287   0.0006123066   0.2220789084  -0.0881202669
       -0.0201713251  -0.0722232072   1.1018102010   0.2944335471  -0.2024931204
       -0.7273067761  -0.2010448295   0.0860886371  -0.2925084867  -0.0738296991
       -0.0091947936   0.0004405648   0.0046100234   0.0635432990  -0.0194591707
       -0.0267672209  -0.0212417793   0.2944335471   0.1521617327  -0.0576318240
       -0.2015679344  -0.0751654060   0.0245250979  -0.0738470068  -0.0548391291
       -0.0382861750   0.0011254751   0.0005439373  -0.1270279760  -0.0149667237
       -0.0037386369  -0.0219476526  -0.2024931204  -0.0576318240   0.1798332970
        0.2081929661   0.0585017779   0.0074285065   0.0081414029   0.0023247457
        0.0516687591  -0.0008256558  -0.0023439179  -0.1597192873   0.0053710825
        0.0047850428  -0.0878687623  -0.7273067761  -0.2015679344   0.2081929661
        0.7398375372   0.2069123176  -0.0122736757  -0.0170761879  -0.0077855082
        0.0149047672  -0.0021595698   0.0060584044  -0.0448907646   0.0041531770
       -0.0076044581  -0.0250420030  -0.2010448295  -0.0751654060   0.0585017779
        0.2069123176   0.0684697816  -0.0034737775  -0.0078610953   0.0082416782
        0.0058745500   0.0001330561   0.0000122953  -0.0151090440   0.0150063024
        0.0043582101  -0.0501716920   0.0860886371   0.0245250979   0.0074285065
       -0.0122736757  -0.0034737775   0.0519776795  -0.0889543199  -0.0254218257
       -0.0001079179  -0.0003418971  -0.0001573873  -0.0007926245  -0.0033497146
       -0.0026314209   0.0817134594  -0.2925084867  -0.0738470068   0.0081414029
       -0.0170761879  -0.0078610953  -0.0889543199   0.3132762863   0.0844969103
       -0.0000560952  -0.0001574754   0.0001724426  -0.0001011742  -0.0027242276
        0.0051399889   0.0232543494  -0.0738296991  -0.0548391291   0.0023247457
       -0.0077855082   0.0082416782  -0.0254218257   0.0844969103   0.0412850195
